ITEM: TIMESTEP
0
ITEM: NUMBER OF ATOMS
1000
ITEM: BOX BOUNDS pp pp pp
0 146.520821
0 146.520821
0 146.520821
ITEM: ATOMS id type x y z radius Transparency
0 1 20.831849 137.947166 56.237151 0.579470 0.2
1 1 83.703553 92.979938 49.878046 0.579470 0.2
2 1 69.752683 138.945794 132.560602 0.579470 0.2
3 1 32.369254 102.194953 82.730836 0.579470 0.2
4 1 104.732845 106.166470 94.641016 0.413907 0.2
5 1 32.891558 68.131380 75.291521 0.579470 0.2
6 1 102.097929 19.190338 115.601085 0.413907 0.2
7 1 55.701192 86.496910 80.432269 0.579470 0.2
8 1 84.247010 16.772344 58.301188 0.579470 0.2
9 1 3.354836 40.247919 29.037999 0.413907 0.2
10 1 130.875980 55.083957 23.409963 0.579470 0.2
11 1 54.166275 68.038261 72.656520 0.413907 0.2
12 1 135.840421 44.668438 74.864052 0.413907 0.2
13 1 100.389904 86.868071 125.824480 0.413907 0.2
14 1 115.912954 73.079125 35.688673 0.413907 0.2
15 1 112.322326 72.520572 55.123004 0.413907 0.2
16 1 16.428413 77.174000 82.673285 0.579470 0.2
17 1 118.484553 7.438007 91.947768 0.579470 0.2
18 1 14.371774 74.579000 108.166753 0.579470 0.2
19 1 64.215940 60.372918 123.416799 0.413907 0.2
20 1 100.825446 135.627087 8.976411 0.579470 0.2
21 1 1.378215 87.675666 86.223188 0.413907 0.2
22 1 104.971468 44.864462 30.066763 0.579470 0.2
23 1 61.383906 26.055710 31.134736 0.579470 0.2
24 1 77.561752 86.826983 87.435256 0.579470 0.2
25 1 115.688683 20.829759 116.814476 0.413907 0.2
26 1 123.637123 131.284735 113.184449 0.579470 0.2
27 1 18.124736 18.416535 146.005148 0.579470 0.2
28 1 46.388539 10.840944 65.297033 0.579470 0.2
29 1 97.752665 37.454189 109.608264 0.413907 0.2
30 1 71.157197 120.731185 17.291550 0.413907 0.2
31 1 31.543282 113.553474 141.232899 0.579470 0.2
32 1 119.885219 140.190673 137.770811 0.413907 0.2
33 1 34.320419 87.242987 4.111373 0.579470 0.2
34 1 1.422148 104.151214 7.254736 0.413907 0.2
35 1 0.865276 66.864684 123.347326 0.579470 0.2
36 1 106.802491 87.514636 120.227796 0.579470 0.2
37 1 110.057116 66.968957 126.389925 0.413907 0.2
38 1 90.450008 92.684406 124.100118 0.413907 0.2
39 1 105.750960 11.059144 126.731823 0.579470 0.2
40 1 143.369956 145.966075 122.129832 0.413907 0.2
41 1 44.808995 143.962160 122.481871 0.579470 0.2
42 1 8.033072 113.692385 57.474775 0.413907 0.2
43 1 138.762600 75.086104 86.885639 0.579470 0.2
44 1 92.541549 56.572774 15.353284 0.579470 0.2
45 1 29.982703 121.719650 24.501900 0.579470 0.2
46 1 55.076745 117.564681 69.179288 0.413907 0.2
47 1 57.156888 107.130049 78.147570 0.579470 0.2
48 1 42.974197 40.785003 49.630249 0.579470 0.2
49 1 74.169815 101.438482 35.027951 0.579470 0.2
50 1 139.380464 145.281509 10.505685 0.413907 0.2
51 1 12.270478 51.183995 78.836636 0.579470 0.2
52 1 34.098505 99.538311 123.937491 0.579470 0.2
53 1 16.510217 57.958012 135.189663 0.579470 0.2
54 1 30.867265 43.278087 121.707972 0.579470 0.2
55 1 122.065001 79.121324 93.301121 0.579470 0.2
56 1 87.631603 72.675543 67.717990 0.413907 0.2
57 1 89.679880 96.431433 95.103890 0.579470 0.2
58 1 52.479564 43.069424 101.065172 0.579470 0.2
59 1 46.618813 50.636640 135.874625 0.579470 0.2
60 1 88.930733 91.981628 106.761229 0.579470 0.2
61 1 24.252161 110.453369 60.147694 0.413907 0.2
62 1 120.026072 45.553909 144.982073 0.579470 0.2
63 1 33.105069 85.340944 122.167295 0.579470 0.2
64 1 68.390409 62.939941 117.935552 0.579470 0.2
65 1 56.760769 49.182611 4.682124 0.413907 0.2
66 1 104.482227 89.282097 51.027892 0.579470 0.2
67 1 86.596728 21.669948 144.672549 0.579470 0.2
68 1 117.212206 52.151553 84.181712 0.413907 0.2
69 1 21.632851 98.046148 25.470658 0.579470 0.2
70 1 140.568521 105.744517 53.906065 0.579470 0.2
71 1 131.852017 11.832697 25.439269 0.413907 0.2
72 1 81.036802 54.123865 124.151913 0.579470 0.2
73 1 22.013490 28.235295 48.410081 0.579470 0.2
74 1 62.494065 6.366289 80.916456 0.413907 0.2
75 1 78.170532 26.836654 127.115607 0.413907 0.2
76 1 19.675674 23.105837 26.944722 0.413907 0.2
77 1 70.481751 45.857289 112.380070 0.413907 0.2
78 1 133.684434 46.697126 35.603086 0.413907 0.2
79 1 24.420673 105.368469 85.535771 0.413907 0.2
80 1 114.407806 115.939974 34.789559 0.579470 0.2
81 1 22.601309 116.322448 61.904856 0.579470 0.2
82 1 23.118018 104.005955 76.824429 0.579470 0.2
83 1 49.516551 12.880649 9.632181 0.579470 0.2
84 1 84.532541 144.595001 29.860539 0.413907 0.2
85 1 113.242118 67.811336 86.855059 0.413907 0.2
86 1 82.113596 60.106105 0.373928 0.413907 0.2
87 1 128.642722 25.209037 4.143816 0.579470 0.2
88 1 135.670638 136.735678 99.211339 0.579470 0.2
89 1 37.953315 55.785737 61.127320 0.579470 0.2
90 1 64.213006 54.280941 47.171297 0.579470 0.2
91 1 78.323041 113.086158 21.802481 0.413907 0.2
92 1 41.716795 75.752902 35.577760 0.579470 0.2
93 1 3.718393 28.207960 55.902770 0.413907 0.2
94 1 12.263288 99.333727 68.327224 0.579470 0.2
95 1 46.737499 48.492244 74.410202 0.579470 0.2
96 1 79.199558 119.162367 24.092310 0.579470 0.2
97 1 142.601510 88.231790 124.905367 0.413907 0.2
98 1 91.573094 84.670204 28.016595 0.413907 0.2
99 1 67.901448 45.432888 19.253787 0.579470 0.2
100 1 92.526081 92.079508 6.243506 0.413907 0.2
101 1 71.307569 95.373106 18.670236 0.579470 0.2
102 1 14.467972 120.458242 19.824176 0.413907 0.2
103 1 75.919133 141.796236 107.429100 0.413907 0.2
104 1 19.869538 139.095825 126.229849 0.413907 0.2
105 1 136.922490 105.329889 72.932125 0.413907 0.2
106 1 52.405395 39.639694 39.228983 0.579470 0.2
107 1 138.772191 17.573409 22.602885 0.579470 0.2
108 1 26.855233 6.922837 67.437897 0.579470 0.2
109 1 40.355704 98.659377 116.303535 0.413907 0.2
110 1 69.033583 122.403763 50.206916 0.579470 0.2
111 1 40.636666 22.681283 5.476953 0.413907 0.2
112 1 33.887793 12.068874 50.080716 0.413907 0.2
113 1 53.450174 118.802236 21.026903 0.413907 0.2
114 1 4.655899 136.649597 96.252695 0.413907 0.2
115 1 42.091217 32.171136 94.065222 0.579470 0.2
116 1 132.451507 87.393219 76.955035 0.413907 0.2
117 1 136.966729 45.850073 76.058038 0.579470 0.2
118 1 145.946741 131.040895 116.794845 0.413907 0.2
119 1 127.663414 19.106426 104.574358 0.413907 0.2
120 1 61.938155 16.813508 48.311027 0.413907 0.2
121 1 127.145022 0.171822 63.599288 0.579470 0.2
122 1 131.218558 71.288280 96.237604 0.579470 0.2
123 1 97.683702 36.304279 108.253316 0.413907 0.2
124 1 60.312340 128.505268 144.012150 0.413907 0.2
125 1 124.206766 44.048334 55.980471 0.413907 0.2
126 1 19.236934 96.707892 4.203347 0.413907 0.2
127 1 138.559519 141.023684 64.488718 0.579470 0.2
128 1 144.684534 54.928364 120.078229 0.579470 0.2
129 1 84.897331 25.370521 6.376912 0.413907 0.2
130 1 93.286039 84.070837 81.402142 0.413907 0.2
131 1 91.808227 19.122354 141.097488 0.579470 0.2
132 1 108.410202 142.337932 20.669428 0.579470 0.2
133 1 72.795833 34.819762 41.738659 0.413907 0.2
134 1 40.775518 10.062898 75.584669 0.579470 0.2
135 1 50.292081 73.735846 62.764933 0.579470 0.2
136 1 109.086774 35.563727 89.236294 0.579470 0.2
137 1 111.524557 54.528090 8.451446 0.413907 0.2
138 1 46.590360 33.049627 48.849329 0.579470 0.2
139 1 75.085043 70.899332 47.931555 0.413907 0.2
140 1 32.326847 97.955936 44.555644 0.579470 0.2
141 1 8.604004 128.797417 34.743252 0.413907 0.2
142 1 29.095065 28.605934 77.412694 0.579470 0.2
143 1 36.637983 20.449927 79.166949 0.579470 0.2
144 1 21.466150 81.437039 42.596329 0.579470 0.2
145 1 64.516712 76.549492 54.971906 0.579470 0.2
146 1 26.423676 27.301107 31.705830 0.413907 0.2
147 1 43.009238 78.099149 15.448590 0.579470 0.2
148 1 70.818839 119.852600 33.051621 0.413907 0.2
149 1 15.076411 110.972940 131.105136 0.579470 0.2
150 1 55.290500 30.524151 65.308977 0.413907 0.2
151 1 114.521123 45.285400 48.692101 0.413907 0.2
152 1 2.127163 122.656876 71.989639 0.579470 0.2
153 1 109.582033 45.069942 128.663382 0.413907 0.2
154 1 22.498834 83.223167 19.368389 0.413907 0.2
155 1 125.292368 2.046300 127.833323 0.413907 0.2
156 1 3.716177 51.145060 116.270957 0.579470 0.2
157 1 143.006650 53.635833 123.259884 0.413907 0.2
158 1 85.686026 93.539475 79.082249 0.413907 0.2
159 1 81.827636 101.454131 34.739867 0.579470 0.2
160 1 132.341168 86.891938 97.183408 0.579470 0.2
161 1 116.946749 5.059040 84.382745 0.413907 0.2
162 1 33.418903 17.427592 75.739718 0.413907 0.2
163 1 131.388255 116.207816 119.023615 0.413907 0.2
164 1 135.211330 27.839901 37.761190 0.413907 0.2
165 1 6.865015 12.462518 101.105366 0.413907 0.2
166 1 44.360682 120.306290 73.363661 0.579470 0.2
167 1 62.111965 129.731325 55.624638 0.413907 0.2
168 1 9.923085 56.284491 20.208024 0.413907 0.2
169 1 99.548297 111.874821 91.777391 0.579470 0.2
170 1 94.318966 22.334764 75.326668 0.579470 0.2
171 1 102.161956 55.652892 67.501965 0.413907 0.2
172 1 127.638215 124.764748 109.102812 0.413907 0.2
173 1 119.075890 83.648043 31.313594 0.413907 0.2
174 1 56.648737 47.916272 27.062035 0.579470 0.2
175 1 51.152910 50.294812 6.596743 0.579470 0.2
176 1 74.859868 92.574986 124.790200 0.413907 0.2
177 1 142.756297 133.280913 140.621122 0.579470 0.2
178 1 94.822501 6.804668 91.138689 0.413907 0.2
179 1 50.733663 34.987702 140.601221 0.579470 0.2
180 1 93.204643 45.190016 40.140526 0.579470 0.2
181 1 13.375328 26.497989 123.306775 0.413907 0.2
182 1 53.526182 34.053238 81.911966 0.413907 0.2
183 1 122.592888 55.449041 92.445594 0.579470 0.2
184 1 136.172733 145.418796 110.504126 0.413907 0.2
185 1 12.943601 69.596269 48.828620 0.579470 0.2
186 1 51.149693 5.866567 0.981730 0.413907 0.2
187 1 48.778722 28.107441 79.326258 0.579470 0.2
188 1 14.324126 18.880395 109.521395 0.579470 0.2
189 1 95.564653 44.066277 87.417174 0.413907 0.2
190 1 56.645219 57.749107 130.374018 0.579470 0.2
191 1 8.390238 71.492683 75.284488 0.413907 0.2
192 1 49.837292 37.929633 54.884855 0.413907 0.2
193 1 15.847986 12.720024 8.330052 0.413907 0.2
194 1 77.145624 114.790254 91.896767 0.579470 0.2
195 1 61.236253 133.167362 116.205006 0.579470 0.2
196 1 138.205722 44.386324 36.020712 0.579470 0.2
197 1 20.811918 69.217753 141.883260 0.413907 0.2
198 1 118.997228 45.649892 60.704667 0.413907 0.2
199 1 25.158466 5.588742 33.552842 0.579470 0.2
200 1 33.820151 123.498037 43.786694 0.579470 0.2
201 1 82.974087 37.541395 131.275205 0.579470 0.2
202 1 57.649156 24.316049 99.545574 0.579470 0.2
203 1 144.708399 66.231662 133.119087 0.413907 0.2
204 1 20.223162 7.056716 105.516368 0.579470 0.2
205 1 110.185955 4.869466 18.800280 0.579470 0.2
206 1 32.375816 96.628518 25.947431 0.413907 0.2
207 1 125.733788 28.004165 79.285590 0.579470 0.2
208 1 93.354741 9.968235 62.029692 0.579470 0.2
209 1 44.733933 144.252032 143.004035 0.579470 0.2
210 1 18.470058 26.698482 111.417859 0.413907 0.2
211 1 96.853827 62.786413 102.813292 0.579470 0.2
212 1 6.947315 110.112168 38.228775 0.579470 0.2
213 1 105.868178 80.595418 86.358592 0.413907 0.2
214 1 143.070681 12.432691 83.004190 0.413907 0.2
215 1 50.762616 20.482980 136.616671 0.413907 0.2
216 1 18.178374 89.845447 10.550630 0.413907 0.2
217 1 62.110216 79.874449 9.941985 0.579470 0.2
218 1 120.805316 83.887201 81.894131 0.413907 0.2
219 1 142.724065 44.887248 56.523235 0.579470 0.2
220 1 126.403150 57.939305 20.540976 0.413907 0.2
221 1 26.814354 82.769688 126.597145 0.579470 0.2
222 1 9.479469 63.146424 95.739939 0.413907 0.2
223 1 79.332211 127.734610 143.934484 0.579470 0.2
224 1 86.314373 63.548409 46.217315 0.413907 0.2
225 1 85.471508 123.733703 14.627342 0.579470 0.2
226 1 37.079012 93.565055 129.660025 0.579470 0.2
227 1 48.033646 112.253020 18.574521 0.413907 0.2
228 1 122.422979 123.892740 88.907414 0.579470 0.2
229 1 37.491373 64.504280 142.220101 0.413907 0.2
230 1 33.388341 60.569880 65.805105 0.579470 0.2
231 1 24.849372 79.179750 53.317823 0.579470 0.2
232 1 61.943739 139.387791 136.207309 0.579470 0.2
233 1 139.172201 136.217300 18.632080 0.579470 0.2
234 1 7.424947 104.130770 26.766811 0.413907 0.2
235 1 58.657793 140.952297 31.260986 0.579470 0.2
236 1 18.617145 119.999799 40.968198 0.413907 0.2
237 1 90.557514 59.068400 132.106638 0.579470 0.2
238 1 1.488947 73.516000 8.270555 0.413907 0.2
239 1 110.672647 65.071300 142.533778 0.579470 0.2
240 1 145.502316 40.488625 105.052627 0.579470 0.2
241 1 50.285955 7.719976 96.268832 0.579470 0.2
242 1 68.652832 88.460904 90.819936 0.579470 0.2
243 1 41.375531 52.866533 36.961725 0.579470 0.2
244 1 30.020746 107.131942 109.941946 0.413907 0.2
245 1 146.434900 119.537497 57.480970 0.579470 0.2
246 1 101.779786 100.788816 59.505008 0.413907 0.2
247 1 128.149617 141.570043 109.830275 0.413907 0.2
248 1 9.864454 47.495499 39.295821 0.579470 0.2
249 1 82.623366 80.493547 106.403418 0.579470 0.2
250 1 30.842741 66.110710 115.519733 0.579470 0.2
251 1 96.846963 115.209707 78.940649 0.579470 0.2
252 1 12.793139 36.607985 36.499725 0.579470 0.2
253 1 43.740927 102.178119 54.767928 0.413907 0.2
254 1 75.405630 24.415984 54.933594 0.579470 0.2
255 1 107.133764 117.248143 126.465601 0.413907 0.2
256 1 42.283352 139.269908 115.475494 0.579470 0.2
257 1 71.525986 116.564887 42.331251 0.579470 0.2
258 1 16.806031 42.551912 57.477336 0.413907 0.2
259 1 39.158485 59.369400 54.172770 0.579470 0.2
260 1 121.149737 34.725774 85.881919 0.579470 0.2
261 1 6.802435 87.225033 22.211797 0.579470 0.2
262 1 94.660270 75.172485 72.826267 0.579470 0.2
263 1 36.465227 1.335057 96.732218 0.413907 0.2
264 1 136.340007 67.151320 32.217373 0.579470 0.2
265 1 0.710525 101.056468 55.206206 0.413907 0.2
266 1 31.032154 28.700336 86.770168 0.413907 0.2
267 1 40.883930 86.719372 143.260129 0.579470 0.2
268 1 60.205008 102.089832 10.251014 0.579470 0.2
269 1 127.478034 85.067499 43.199681 0.413907 0.2
270 1 53.827175 29.845683 145.796499 0.413907 0.2
271 1 75.738326 17.364748 123.114467 0.579470 0.2
272 1 34.368652 22.715908 91.186548 0.579470 0.2
273 1 85.753821 78.410426 19.680818 0.413907 0.2
274 1 11.616226 16.653175 110.452926 0.579470 0.2
275 1 119.190969 131.939327 109.055070 0.579470 0.2
276 1 39.177451 1.872855 50.038936 0.413907 0.2
277 1 51.162522 137.193132 137.340732 0.579470 0.2
278 1 38.160781 134.159459 144.651479 0.413907 0.2
279 1 66.720596 42.370125 18.214238 0.413907 0.2
280 1 104.650807 145.794290 119.291896 0.413907 0.2
281 1 27.994527 79.919430 31.621297 0.579470 0.2
282 1 34.954854 72.770565 80.481372 0.579470 0.2
283 1 111.059346 86.338458 83.789535 0.413907 0.2
284 1 39.219902 24.465844 32.543637 0.579470 0.2
285 1 122.549286 111.482757 10.978738 0.579470 0.2
286 1 139.364745 93.609595 23.610110 0.579470 0.2
287 1 7.514916 49.059593 56.036592 0.579470 0.2
288 1 97.064506 99.540304 79.918605 0.579470 0.2
289 1 106.096540 66.124889 53.799495 0.579470 0.2
290 1 94.369578 90.192979 20.400379 0.579470 0.2
291 1 58.250701 45.145568 10.915377 0.413907 0.2
292 1 140.806602 55.261676 60.972862 0.579470 0.2
293 1 73.382958 19.888306 44.515777 0.579470 0.2
294 1 88.272676 85.027721 106.131770 0.579470 0.2
295 1 2.190943 112.994853 32.630717 0.579470 0.2
296 1 130.587931 59.767692 51.070634 0.579470 0.2
297 1 77.060556 3.809763 39.883439 0.413907 0.2
298 1 33.879136 85.708758 130.198902 0.413907 0.2
299 1 96.314924 56.835133 35.013202 0.579470 0.2
300 1 48.085956 137.399664 31.623957 0.413907 0.2
301 1 73.773516 49.688034 29.060086 0.579470 0.2
302 1 60.364490 119.433884 25.189909 0.413907 0.2
303 1 118.872065 64.678922 89.913472 0.579470 0.2
304 1 67.366643 141.818066 57.386251 0.579470 0.2
305 1 46.196305 93.115497 36.469487 0.413907 0.2
306 1 117.511953 21.571481 12.186143 0.579470 0.2
307 1 54.014303 84.386935 65.063397 0.413907 0.2
308 1 96.050483 86.913800 136.886337 0.579470 0.2
309 1 121.273272 75.174186 119.301191 0.579470 0.2
310 1 44.953761 45.426608 46.813706 0.579470 0.2
311 1 27.045343 99.675673 6.902938 0.413907 0.2
312 1 7.681941 15.093765 6.337643 0.413907 0.2
313 1 61.748913 113.245021 105.333481 0.579470 0.2
314 1 35.642069 48.576713 61.245168 0.413907 0.2
315 1 133.221140 68.969501 131.131156 0.579470 0.2
316 1 106.818481 28.583153 53.637736 0.413907 0.2
317 1 88.575680 35.069490 10.431973 0.579470 0.2
318 1 5.427544 49.846339 142.409599 0.413907 0.2
319 1 43.819355 68.809786 145.181344 0.413907 0.2
320 1 79.839049 132.307021 24.914392 0.413907 0.2
321 1 35.542325 2.785054 135.032385 0.579470 0.2
322 1 18.417064 46.440774 67.928937 0.579470 0.2
323 1 69.729964 71.720518 21.009371 0.579470 0.2
324 1 73.149894 143.827272 40.946721 0.413907 0.2
325 1 9.774442 139.581173 133.181388 0.413907 0.2
326 1 60.631535 98.798960 54.720686 0.579470 0.2
327 1 30.564950 130.659175 31.806297 0.413907 0.2
328 1 53.577305 126.401947 19.884755 0.413907 0.2
329 1 4.039941 93.033815 77.499161 0.579470 0.2
330 1 63.671647 27.929619 5.582578 0.413907 0.2
331 1 137.000691 87.594103 108.001082 0.413907 0.2
332 1 95.602339 14.762759 132.028352 0.413907 0.2
333 1 32.655303 62.272101 8.106840 0.579470 0.2
334 1 127.728656 108.641568 36.783009 0.579470 0.2
335 1 48.595843 142.792882 110.120784 0.413907 0.2
336 1 45.164696 46.450307 125.082553 0.579470 0.2
337 1 67.273376 60.056358 101.895379 0.413907 0.2
338 1 52.502135 70.928989 12.651971 0.413907 0.2
339 1 54.827527 91.714626 112.632389 0.579470 0.2
340 1 5.373209 64.117112 65.463250 0.579470 0.2
341 1 95.943040 52.202234 77.685122 0.413907 0.2
342 1 106.987387 82.728291 112.377101 0.413907 0.2
343 1 132.144164 82.378099 89.433747 0.579470 0.2
344 1 22.678758 8.999650 66.503329 0.579470 0.2
345 1 42.824105 39.242604 31.084873 0.413907 0.2
346 1 46.707126 127.445876 89.493531 0.413907 0.2
347 1 74.813307 27.131324 49.329825 0.413907 0.2
348 1 10.543646 7.847932 40.903253 0.579470 0.2
349 1 141.347568 12.853261 98.325157 0.579470 0.2
350 1 8.084887 104.623313 17.801926 0.579470 0.2
351 1 61.961534 136.950348 15.621753 0.579470 0.2
352 1 24.579494 12.196504 31.437242 0.579470 0.2
353 1 94.470158 141.363950 139.978458 0.579470 0.2
354 1 75.985150 141.082937 139.485406 0.413907 0.2
355 1 102.125985 27.286432 62.813430 0.579470 0.2
356 1 86.376454 53.644711 50.599292 0.413907 0.2
357 1 88.537454 114.647317 53.832393 0.413907 0.2
358 1 35.307025 11.218472 84.124605 0.579470 0.2
359 1 47.668628 138.947556 109.662570 0.579470 0.2
360 1 9.696937 71.569894 146.175385 0.413907 0.2
361 1 73.004197 85.746344 111.978374 0.579470 0.2
362 1 85.548850 103.183435 1.761577 0.413907 0.2
363 1 76.806688 48.690712 97.592654 0.413907 0.2
364 1 102.832223 55.306584 31.973844 0.579470 0.2
365 1 84.493053 109.286117 112.904004 0.413907 0.2
366 1 22.603734 93.515754 133.881798 0.413907 0.2
367 1 34.107261 5.879974 123.802566 0.413907 0.2
368 1 94.821129 54.656212 102.574879 0.579470 0.2
369 1 114.886475 7.533589 86.040580 0.413907 0.2
370 1 137.096971 74.060373 53.462600 0.579470 0.2
371 1 123.438294 106.538338 19.756080 0.413907 0.2
372 1 30.023035 38.542853 10.523944 0.579470 0.2
373 1 99.346294 7.820998 16.133384 0.413907 0.2
374 1 20.186729 71.083749 17.957507 0.413907 0.2
375 1 85.127191 53.542885 108.014658 0.579470 0.2
376 1 112.466560 53.375418 95.552474 0.413907 0.2
377 1 59.756512 79.801951 145.138556 0.413907 0.2
378 1 13.122608 54.026755 86.270605 0.413907 0.2
379 1 44.511859 135.465741 118.697816 0.579470 0.2
380 1 82.010332 87.760312 104.592524 0.413907 0.2
381 1 80.311310 110.806842 58.056826 0.413907 0.2
382 1 0.034680 78.910823 141.797074 0.579470 0.2
383 1 27.281902 33.195618 2.352837 0.579470 0.2
384 1 41.052155 103.575169 97.958356 0.579470 0.2
385 1 60.822189 10.618627 6.967704 0.413907 0.2
386 1 51.626551 130.346364 42.662355 0.579470 0.2
387 1 22.496692 1.698551 135.134472 0.413907 0.2
388 1 8.915986 56.360092 20.305768 0.413907 0.2
389 1 17.445773 137.786546 145.173484 0.579470 0.2
390 1 97.155936 121.851782 131.990096 0.579470 0.2
391 1 40.218195 129.746478 132.233978 0.413907 0.2
392 1 111.824509 32.704463 138.535021 0.579470 0.2
393 1 107.216392 58.322326 3.168108 0.413907 0.2
394 1 36.518261 101.932163 98.109185 0.413907 0.2
395 1 11.132281 75.431333 80.861675 0.579470 0.2
396 1 131.264535 62.084571 107.087275 0.413907 0.2
397 1 49.551540 11.605275 145.845929 0.413907 0.2
398 1 57.270304 131.683263 86.319961 0.413907 0.2
399 1 56.681622 5.546575 117.920431 0.579470 0.2
400 1 13.365262 82.356367 52.493646 0.413907 0.2
401 1 22.858553 26.904265 29.157554 0.413907 0.2
402 1 76.464281 35.300383 116.135282 0.413907 0.2
403 1 111.900074 119.581208 65.179360 0.579470 0.2
404 1 58.820128 136.756627 85.546084 0.579470 0.2
405 1 118.271326 67.701024 76.686614 0.579470 0.2
406 1 26.444319 63.543218 93.446397 0.579470 0.2
407 1 19.694058 144.548154 43.495324 0.413907 0.2
408 1 77.768851 85.298394 72.728119 0.579470 0.2
409 1 77.227947 32.279200 86.525667 0.579470 0.2
410 1 127.141788 21.131392 39.455626 0.579470 0.2
411 1 136.925938 107.610856 105.296616 0.413907 0.2
412 1 23.038685 68.883730 101.369647 0.413907 0.2
413 1 58.817873 133.042450 2.494600 0.413907 0.2
414 1 139.410575 108.730174 92.885814 0.579470 0.2
415 1 116.228743 21.466857 8.231734 0.579470 0.2
416 1 74.071762 57.621849 21.798801 0.413907 0.2
417 1 106.682491 71.291513 66.357154 0.413907 0.2
418 1 101.669600 145.614515 143.472574 0.579470 0.2
419 1 45.366686 17.434824 49.898754 0.579470 0.2
420 1 83.715165 116.109765 34.120655 0.413907 0.2
421 1 92.396817 107.016866 106.636802 0.579470 0.2
422 1 125.141353 93.907426 50.646642 0.579470 0.2
423 1 51.163113 12.782667 59.534161 0.413907 0.2
424 1 97.927918 10.013270 88.894804 0.413907 0.2
425 1 2.167086 143.094972 118.346156 0.579470 0.2
426 1 93.712390 143.434752 20.457960 0.579470 0.2
427 1 0.694240 44.012125 85.067239 0.413907 0.2
428 1 129.106985 58.986816 5.295935 0.579470 0.2
429 1 80.199876 50.918223 45.851339 0.579470 0.2
430 1 101.620446 91.140467 101.030767 0.579470 0.2
431 1 25.896351 14.723464 39.059128 0.413907 0.2
432 1 45.383837 0.045983 73.465382 0.413907 0.2
433 1 20.452494 112.039819 92.094831 0.413907 0.2
434 1 136.538733 19.906921 67.341128 0.413907 0.2
435 1 73.630241 145.610872 117.597153 0.579470 0.2
436 1 77.048724 14.582683 83.603851 0.413907 0.2
437 1 133.104914 82.073617 80.751723 0.579470 0.2
438 1 82.574303 136.033358 39.142005 0.413907 0.2
439 1 145.039954 111.300996 35.379099 0.413907 0.2
440 1 97.512047 74.068111 81.854579 0.579470 0.2
441 1 38.245300 104.641649 17.570387 0.413907 0.2
442 1 30.531816 83.627961 95.158422 0.579470 0.2
443 1 87.969397 59.298465 104.812251 0.579470 0.2
444 1 112.912781 106.347064 138.645427 0.579470 0.2
445 1 48.657297 117.514567 47.996672 0.413907 0.2
446 1 44.162603 90.392107 122.578344 0.413907 0.2
447 1 88.077731 96.871147 95.076969 0.579470 0.2
448 1 1.881220 100.716702 112.165211 0.579470 0.2
449 1 58.531649 62.741890 76.930523 0.413907 0.2
450 1 16.852560 135.056697 86.570813 0.413907 0.2
451 1 126.144925 34.990965 119.921244 0.579470 0.2
452 1 106.591763 138.241705 27.102421 0.579470 0.2
453 1 10.332323 129.252427 58.227651 0.413907 0.2
454 1 69.265478 79.063652 19.861552 0.579470 0.2
455 1 40.592881 69.434137 31.483153 0.413907 0.2
456 1 138.839065 39.015689 73.828995 0.413907 0.2
457 1 5.701542 62.365703 19.646085 0.579470 0.2
458 1 93.315415 140.691646 122.131009 0.579470 0.2
459 1 115.572515 75.612356 80.941347 0.579470 0.2
460 1 22.113205 1.481689 105.352365 0.579470 0.2
461 1 113.448548 72.649016 47.448626 0.413907 0.2
462 1 49.509720 106.858509 67.875158 0.413907 0.2
463 1 98.992436 113.023454 71.886745 0.413907 0.2
464 1 75.991686 38.276076 45.686909 0.579470 0.2
465 1 56.141098 13.387408 35.723157 0.413907 0.2
466 1 125.877171 50.390864 76.794777 0.579470 0.2
467 1 122.627634 23.274890 46.591883 0.413907 0.2
468 1 10.758480 47.334055 113.453166 0.413907 0.2
469 1 53.534684 102.518130 30.248699 0.579470 0.2
470 1 109.049574 87.575481 14.049695 0.579470 0.2
471 1 44.350281 142.119026 15.083043 0.413907 0.2
472 1 102.421510 16.501079 40.715885 0.413907 0.2
473 1 25.966448 119.424899 72.972730 0.413907 0.2
474 1 123.877171 78.172252 116.539512 0.413907 0.2
475 1 31.610630 15.379979 80.514055 0.413907 0.2
476 1 5.579093 94.328291 88.308999 0.413907 0.2
477 1 94.017275 144.969304 115.332443 0.579470 0.2
478 1 35.086941 21.642906 125.098787 0.413907 0.2
479 1 92.505171 88.806137 47.898302 0.579470 0.2
480 1 11.876085 36.145109 1.447956 0.413907 0.2
481 1 141.209587 87.008009 60.655050 0.413907 0.2
482 1 17.738323 90.522598 7.660406 0.579470 0.2
483 1 70.614331 85.674970 68.018253 0.579470 0.2
484 1 60.375800 92.574640 15.162515 0.579470 0.2
485 1 76.992736 73.964852 133.379901 0.579470 0.2
486 1 48.751016 124.974915 60.079369 0.413907 0.2
487 1 74.534794 53.443349 55.365652 0.579470 0.2
488 1 5.835851 141.399637 107.187923 0.413907 0.2
489 1 114.270387 134.031841 87.212275 0.413907 0.2
490 1 71.057746 47.831717 64.626246 0.413907 0.2
491 1 140.414268 67.108200 62.128539 0.413907 0.2
492 1 28.195895 32.946044 56.188816 0.413907 0.2
493 1 36.851041 134.595456 26.621757 0.579470 0.2
494 1 71.897416 137.682673 66.815427 0.413907 0.2
495 1 101.338782 134.951462 5.679529 0.579470 0.2
496 1 80.110733 43.395687 2.883183 0.579470 0.2
497 1 69.299266 1.073243 132.059937 0.579470 0.2
498 1 60.835723 23.241607 62.448603 0.413907 0.2
499 1 52.461128 65.156909 25.337911 0.579470 0.2
500 1 102.872838 36.658472 27.318272 0.579470 0.2
501 1 61.113971 1.171395 91.144055 0.579470 0.2
502 1 14.005316 51.733075 44.759052 0.413907 0.2
503 1 120.324208 73.351911 4.148616 0.413907 0.2
504 1 82.047043 27.531768 118.872445 0.413907 0.2
505 1 105.874316 82.051884 89.964002 0.579470 0.2
506 1 12.203999 123.143212 137.691658 0.413907 0.2
507 1 70.068905 126.161197 133.292983 0.413907 0.2
508 1 74.425932 45.957317 25.425596 0.413907 0.2
509 1 43.415926 30.235513 53.186540 0.413907 0.2
510 1 4.083634 44.453099 75.912680 0.579470 0.2
511 1 96.125848 128.447850 88.468341 0.413907 0.2
512 1 47.453518 89.458846 101.964807 0.579470 0.2
513 1 124.589630 124.173121 19.560563 0.579470 0.2
514 1 41.510906 17.708803 49.379703 0.579470 0.2
515 1 85.692996 85.122098 56.314205 0.413907 0.2
516 1 24.266749 65.335880 105.229102 0.579470 0.2
517 1 9.916133 92.714344 135.023876 0.413907 0.2
518 1 12.682947 49.438103 98.303782 0.413907 0.2
519 1 50.285843 80.007330 109.982468 0.413907 0.2
520 1 3.973600 102.879878 121.762297 0.579470 0.2
521 1 98.654294 109.557973 104.776826 0.579470 0.2
522 1 60.166784 50.758614 125.641923 0.413907 0.2
523 1 101.853174 43.214183 132.490150 0.413907 0.2
524 1 39.040265 53.957646 144.445045 0.413907 0.2
525 1 87.043151 99.636587 98.224350 0.579470 0.2
526 1 22.782284 142.147453 39.397437 0.413907 0.2
527 1 99.052850 39.334828 21.713914 0.579470 0.2
528 1 5.661823 87.776807 83.944691 0.413907 0.2
529 1 34.449105 28.913157 91.589380 0.413907 0.2
530 1 42.882067 73.735095 85.891625 0.579470 0.2
531 1 110.651946 54.351618 95.206836 0.579470 0.2
532 1 64.697827 30.909204 42.644236 0.579470 0.2
533 1 78.663471 107.045678 2.162922 0.413907 0.2
534 1 118.139086 32.445291 4.555831 0.579470 0.2
535 1 90.350022 76.921992 14.872969 0.413907 0.2
536 1 54.473935 2.396981 102.603723 0.579470 0.2
537 1 84.185713 112.043819 74.791557 0.579470 0.2
538 1 125.390843 35.671170 142.167693 0.413907 0.2
539 1 73.230311 92.454201 8.479875 0.413907 0.2
540 1 37.810771 126.687786 113.351467 0.413907 0.2
541 1 146.233532 30.503076 35.675371 0.579470 0.2
542 1 123.311617 24.638753 97.530327 0.579470 0.2
543 1 14.007123 109.610840 5.260874 0.413907 0.2
544 1 130.755706 109.761765 86.405442 0.413907 0.2
545 1 114.925449 136.493855 142.909986 0.413907 0.2
546 1 109.666639 122.518500 139.042582 0.579470 0.2
547 1 85.419356 77.633430 114.320254 0.413907 0.2
548 1 68.071243 67.128737 139.385594 0.579470 0.2
549 1 82.695531 83.379863 78.879079 0.579470 0.2
550 1 67.371763 47.143490 76.741500 0.579470 0.2
551 1 109.425738 134.000476 7.454421 0.413907 0.2
552 1 64.725638 50.686045 88.053026 0.413907 0.2
553 1 140.926019 132.569908 101.745767 0.579470 0.2
554 1 54.491909 107.742701 65.791512 0.579470 0.2
555 1 88.726639 135.172634 117.877983 0.413907 0.2
556 1 121.174585 21.439269 33.519433 0.579470 0.2
557 1 81.536954 108.267598 39.991420 0.579470 0.2
558 1 82.396206 126.020460 2.751152 0.413907 0.2
559 1 109.148840 140.543665 8.003970 0.413907 0.2
560 1 25.385744 39.432871 69.981392 0.413907 0.2
561 1 50.559419 84.338658 97.682871 0.579470 0.2
562 1 67.202217 63.375025 49.364762 0.413907 0.2
563 1 26.182472 88.270608 57.276933 0.413907 0.2
564 1 52.792158 61.544463 143.935778 0.413907 0.2
565 1 116.020120 60.474144 6.419365 0.413907 0.2
566 1 141.141597 66.041035 87.236897 0.579470 0.2
567 1 14.250411 84.025528 91.003179 0.413907 0.2
568 1 52.366753 79.760564 107.910844 0.413907 0.2
569 1 10.643480 16.306046 46.933218 0.413907 0.2
570 1 144.893606 79.977111 124.347506 0.579470 0.2
571 1 14.235745 40.990893 112.827095 0.579470 0.2
572 1 69.009159 91.433730 20.077513 0.413907 0.2
573 1 127.835048 107.580845 108.739654 0.579470 0.2
574 1 65.179018 55.679223 19.531788 0.579470 0.2
575 1 7.125305 138.619245 124.202095 0.413907 0.2
576 1 131.103959 141.347979 121.885507 0.413907 0.2
577 1 116.251960 75.084788 78.107788 0.413907 0.2
578 1 54.475654 67.533733 47.898129 0.579470 0.2
579 1 31.457863 4.154754 50.628270 0.413907 0.2
580 1 97.048115 56.993201 66.376326 0.579470 0.2
581 1 53.412542 98.694569 36.484085 0.413907 0.2
582 1 122.845288 58.006031 65.229365 0.579470 0.2
583 1 49.544079 35.476980 86.295016 0.579470 0.2
584 1 132.428388 93.367958 27.696304 0.579470 0.2
585 1 81.908292 141.109914 60.504024 0.579470 0.2
586 1 18.995266 122.290201 99.424106 0.579470 0.2
587 1 88.407512 41.102310 128.029210 0.579470 0.2
588 1 124.974672 137.673736 54.676105 0.413907 0.2
589 1 102.078797 59.336898 99.444596 0.579470 0.2
590 1 70.460855 108.766194 121.093653 0.413907 0.2
591 1 2.472010 86.605702 65.605886 0.579470 0.2
592 1 102.741464 13.861221 58.423467 0.579470 0.2
593 1 100.097521 11.256045 2.862218 0.579470 0.2
594 1 49.940667 66.051450 48.468346 0.413907 0.2
595 1 68.160605 56.064915 95.887927 0.579470 0.2
596 1 38.344211 106.474896 105.014883 0.413907 0.2
597 1 77.276743 138.000448 51.569476 0.413907 0.2
598 1 145.059654 35.742572 85.082987 0.579470 0.2
599 1 124.529636 126.707350 75.698085 0.413907 0.2
600 1 37.867812 36.871422 38.224252 0.579470 0.2
601 1 115.234465 87.637156 146.370626 0.413907 0.2