ITEM: TIMESTEP
0
ITEM: NUMBER OF ATOMS
1000
ITEM: BOX BOUNDS pp pp pp
0 0.1000010000
0 0.1000010000
0 0.1000010000
ITEM: ATOMS id type x y z radius Transparency
0 1 0.0351396470 0.0345103572 0.0001768696 0.5764163373 0.2
1 1 0.0998488911 0.0166481890 0.0111153474 0.5764163373 0.2
2 1 0.0025233556 0.0080889843 0.0861290945 0.5764163373 0.2
3 1 0.0840131920 0.0395933358 0.0490039981 0.5764163373 0.2
4 1 0.0787240958 0.0886320353 0.0823721646 0.5764163373 0.2
5 1 0.0891089322 0.0035244968 0.0900936818 0.5764163373 0.2
6 1 0.0716133353 0.0091959156 0.0696917045 0.4117259552 0.2
7 1 0.0323426888 0.0107894738 0.0574491262 0.5764163373 0.2
8 1 0.0982664298 0.0695224293 0.0171010194 0.4117259552 0.2
9 1 0.0478780490 0.0675446903 0.0233403378 0.5764163373 0.2
10 1 0.0382798729 0.0905945364 0.0954298679 0.4117259552 0.2
11 1 0.0527857118 0.0585099793 0.0336194688 0.4117259552 0.2
12 1 0.0101527774 0.0935630188 0.0579234518 0.5764163373 0.2
13 1 0.0925151039 0.0481002878 0.0994999153 0.4117259552 0.2
14 1 0.0001442531 0.0462211503 0.0876379015 0.4117259552 0.2
15 1 0.0860355568 0.0092380617 0.0543118102 0.5764163373 0.2
16 1 0.0525604691 0.0965988091 0.0502043845 0.5764163373 0.2
17 1 0.0143824502 0.0342150650 0.0411360637 0.5764163373 0.2
18 1 0.0579700764 0.0519137733 0.0845909657 0.5764163373 0.2
19 1 0.0222023112 0.0966381768 0.0717912625 0.5764163373 0.2
20 1 0.0711213206 0.0798395930 0.0267596966 0.4117259552 0.2
21 1 0.0712816477 0.0107173212 0.0104163483 0.5764163373 0.2
22 1 0.0832350783 0.0075362722 0.0326317689 0.4117259552 0.2
23 1 0.0097077060 0.0643942789 0.0832244946 0.4117259552 0.2
24 1 0.0823513160 0.0907207191 0.0377339758 0.5764163373 0.2
25 1 0.0300137392 0.0052256981 0.0673348211 0.5764163373 0.2
26 1 0.0110294768 0.0418566272 0.0543686753 0.4117259552 0.2
27 1 0.0359624389 0.0726864575 0.0475745790 0.5764163373 0.2
28 1 0.0575368574 0.0511230142 0.0528016776 0.5764163373 0.2
29 1 0.0823957562 0.0112593797 0.0754089499 0.4117259552 0.2
30 1 0.0805511995 0.0511723813 0.0308034379 0.4117259552 0.2
31 1 0.0343882761 0.0703940183 0.0494361739 0.5764163373 0.2
32 1 0.0532936891 0.0017287850 0.0965088542 0.5764163373 0.2
33 1 0.0321389624 0.0587326429 0.0751583459 0.5764163373 0.2
34 1 0.0920848689 0.0751679209 0.0219440072 0.5764163373 0.2
35 1 0.0914064298 0.0523222876 0.0898881493 0.5764163373 0.2
36 1 0.0857917751 0.0712706014 0.0981283295 0.4117259552 0.2
37 1 0.0739480538 0.0781118961 0.0922765987 0.5764163373 0.2
38 1 0.0825277111 0.0315690678 0.0333715697 0.4117259552 0.2
39 1 0.0786332155 0.0247798723 0.0969406299 0.5764163373 0.2
40 1 0.0954143500 0.0043270504 0.0606668439 0.5764163373 0.2
41 1 0.0557652527 0.0374014709 0.0647362586 0.4117259552 0.2
42 1 0.0133933139 0.0502517684 0.0007903377 0.4117259552 0.2
43 1 0.0311731613 0.0369572965 0.0818171717 0.4117259552 0.2
44 1 0.0293008712 0.0941461690 0.0605165006 0.5764163373 0.2
45 1 0.0022534014 0.0046316488 0.0218234848 0.5764163373 0.2
46 1 0.0340379941 0.0048813316 0.0419837696 0.4117259552 0.2
47 1 0.0682592322 0.0380306396 0.0693280320 0.5764163373 0.2
48 1 0.0524273675 0.0300563610 0.0094233064 0.4117259552 0.2
49 1 0.0501941141 0.0510186200 0.0732753285 0.5764163373 0.2
50 1 0.0249262600 0.0979722151 0.0116074640 0.4117259552 0.2
51 1 0.0510081599 0.0612090075 0.0967700667 0.5764163373 0.2
52 1 0.0897683780 0.0822687673 0.0112593878 0.5764163373 0.2
53 1 0.0577736384 0.0687107208 0.0034562497 0.4117259552 0.2
54 1 0.0990974950 0.0030266743 0.0049715167 0.4117259552 0.2
55 1 0.0175550418 0.0495031517 0.0149860511 0.5764163373 0.2
56 1 0.0659264298 0.0471420074 0.0353094016 0.5764163373 0.2
57 1 0.0618742852 0.0112786995 0.0060880077 0.4117259552 0.2
58 1 0.0279901529 0.0697817260 0.0982328381 0.5764163373 0.2
59 1 0.0246260741 0.0007398040 0.0724192306 0.4117259552 0.2
60 1 0.0193271154 0.0870755501 0.0899390092 0.5764163373 0.2
61 1 0.0147236781 0.0662552721 0.0388773081 0.4117259552 0.2
62 1 0.0903535495 0.0968935275 0.0066486933 0.5764163373 0.2
63 1 0.0161911447 0.0954941208 0.0272752837 0.5764163373 0.2
64 1 0.0870157459 0.0443657017 0.0114922115 0.4117259552 0.2
65 1 0.0725313858 0.0015705578 0.0387779964 0.5764163373 0.2
66 1 0.0578670970 0.0517224875 0.0438998917 0.5764163373 0.2
67 1 0.0158522840 0.0997734330 0.0626918745 0.4117259552 0.2
68 1 0.0708325541 0.0307378466 0.0567535301 0.5764163373 0.2
69 1 0.0160769893 0.0310636934 0.0683431498 0.5764163373 0.2
70 1 0.0079892231 0.0500343178 0.0144118336 0.4117259552 0.2
71 1 0.0668528958 0.0375522784 0.0948736685 0.5764163373 0.2
72 1 0.0113417001 0.0928390336 0.0234887522 0.4117259552 0.2
73 1 0.0867866995 0.0633528658 0.0427721983 0.4117259552 0.2
74 1 0.0187898209 0.0630780182 0.0833055344 0.5764163373 0.2
75 1 0.0808290708 0.0411042921 0.0789164379 0.4117259552 0.2
76 1 0.0015463111 0.0362660530 0.0162598068 0.4117259552 0.2
77 1 0.0016071058 0.0024443497 0.0096369807 0.4117259552 0.2
78 1 0.0299963258 0.0427831997 0.0201984278 0.5764163373 0.2
79 1 0.0094617800 0.0578343211 0.0484243453 0.5764163373 0.2
80 1 0.0578879856 0.0549348686 0.0830351059 0.5764163373 0.2
81 1 0.0755417813 0.0184537303 0.0665073619 0.5764163373 0.2
82 1 0.0012295252 0.0195687157 0.0220429128 0.5764163373 0.2
83 1 0.0497757320 0.0612974422 0.0601000235 0.4117259552 0.2
84 1 0.0232037695 0.0313190074 0.0906424978 0.4117259552 0.2
85 1 0.0904000886 0.0244594564 0.0800259455 0.4117259552 0.2
86 1 0.0894410720 0.0586259079 0.0875808262 0.5764163373 0.2
87 1 0.0613101609 0.0569683940 0.0207351046 0.5764163373 0.2
88 1 0.0876987163 0.0513898656 0.0564022623 0.5764163373 0.2
89 1 0.0469891940 0.0050436915 0.0891280938 0.5764163373 0.2
90 1 0.0291833784 0.0681585192 0.0038193660 0.4117259552 0.2
91 1 0.0054826967 0.0050531949 0.0114584084 0.5764163373 0.2
92 1 0.0813430011 0.0916650324 0.0418991819 0.4117259552 0.2
93 1 0.0596901528 0.0131086483 0.0624622898 0.5764163373 0.2
94 1 0.0430595455 0.0691456205 0.0449876723 0.5764163373 0.2
95 1 0.0205898558 0.0040547203 0.0480263796 0.5764163373 0.2
96 1 0.0695080077 0.0344873139 0.0067495130 0.5764163373 0.2
97 1 0.0915448172 0.0247675887 0.0722232824 0.5764163373 0.2
98 1 0.0913170813 0.0473089143 0.0104976002 0.4117259552 0.2
99 1 0.0671687662 0.0789267259 0.0187732355 0.5764163373 0.2
100 1 0.0669949210 0.0728166199 0.0119133511 0.5764163373 0.2
101 1 0.0966407973 0.0236099007 0.0246482988 0.4117259552 0.2
102 1 0.0073479281 0.0519738866 0.0484729895 0.5764163373 0.2
103 1 0.0547924516 0.0699166253 0.0142280301 0.4117259552 0.2
104 1 0.0019543689 0.0923909829 0.0226439888 0.4117259552 0.2
105 1 0.0646036292 0.0903201700 0.0693139219 0.5764163373 0.2
106 1 0.0905731857 0.0829068554 0.0967680141 0.4117259552 0.2
107 1 0.0305196397 0.0908447690 0.0764517220 0.5764163373 0.2
108 1 0.0251783910 0.0898539862 0.0526258368 0.5764163373 0.2
109 1 0.0125164584 0.0221742802 0.0530846264 0.5764163373 0.2
110 1 0.0536194720 0.0594294565 0.0806677262 0.5764163373 0.2
111 1 0.0118297285 0.0253345050 0.0917680185 0.4117259552 0.2
112 1 0.0851926556 0.0713232924 0.0224202674 0.4117259552 0.2
113 1 0.0122961446 0.0528228528 0.0670708122 0.4117259552 0.2
114 1 0.0458771812 0.0432396506 0.0465900912 0.4117259552 0.2
115 1 0.0020323842 0.0684888804 0.0796952980 0.5764163373 0.2
116 1 0.0119568596 0.0430142939 0.0411269567 0.5764163373 0.2
117 1 0.0773023200 0.0822146994 0.0756563414 0.4117259552 0.2
118 1 0.0529755613 0.0154728030 0.0048799809 0.5764163373 0.2
119 1 0.0247692867 0.0207104263 0.0497105558 0.5764163373 0.2
120 1 0.0626024476 0.0513582907 0.0224233377 0.4117259552 0.2
121 1 0.0599716274 0.0294939602 0.0275311666 0.5764163373 0.2
122 1 0.0930834841 0.0084641744 0.0187703455 0.4117259552 0.2
123 1 0.0953166770 0.0515668758 0.0829100248 0.5764163373 0.2
124 1 0.0266035291 0.0973413441 0.0781603554 0.4117259552 0.2
125 1 0.0430999863 0.0684408607 0.0309846291 0.5764163373 0.2
126 1 0.0329654289 0.0757446778 0.0318369283 0.5764163373 0.2
127 1 0.0497983123 0.0186694698 0.0846579184 0.4117259552 0.2
128 1 0.0834025272 0.0633615393 0.0650856961 0.4117259552 0.2
129 1 0.0621954668 0.0361287960 0.0438008344 0.4117259552 0.2
130 1 0.0457315018 0.0102128544 0.0438771865 0.5764163373 0.2
131 1 0.0583660281 0.0580414516 0.0988727742 0.4117259552 0.2
132 1 0.0225813470 0.0864241368 0.0199243459 0.5764163373 0.2
133 1 0.0367138639 0.0707300241 0.0274319277 0.5764163373 0.2
134 1 0.0396095297 0.0439116475 0.0194700525 0.4117259552 0.2
135 1 0.0475859123 0.0363541131 0.0078398462 0.4117259552 0.2
136 1 0.0054465130 0.0122762554 0.0595694897 0.4117259552 0.2
137 1 0.0237940934 0.0236541232 0.0457839217 0.4117259552 0.2
138 1 0.0349472601 0.0968110509 0.0704156875 0.5764163373 0.2
139 1 0.0873087707 0.0163617506 0.0638018617 0.4117259552 0.2
140 1 0.0568398555 0.0715204436 0.0475970317 0.5764163373 0.2
141 1 0.0578755349 0.0697378882 0.0305880506 0.5764163373 0.2
142 1 0.0335995129 0.0956719416 0.0317003811 0.4117259552 0.2
143 1 0.0363744495 0.0881798732 0.0928721835 0.5764163373 0.2
144 1 0.0627471482 0.0683188738 0.0523315831 0.4117259552 0.2
145 1 0.0238411759 0.0608099940 0.0973791065 0.4117259552 0.2
146 1 0.0610015315 0.0210647199 0.0237860099 0.4117259552 0.2
147 1 0.0707629273 0.0652593609 0.0453999688 0.5764163373 0.2
148 1 0.0823787162 0.0531153021 0.0183965309 0.4117259552 0.2
149 1 0.0550582599 0.0786493775 0.0398024951 0.5764163373 0.2
150 1 0.0546116406 0.0845518642 0.0291055921 0.4117259552 0.2
151 1 0.0548084272 0.0584719014 0.0286264543 0.4117259552 0.2
152 1 0.0629998508 0.0853309131 0.0593774850 0.4117259552 0.2
153 1 0.0846403386 0.0875629195 0.0124997177 0.4117259552 0.2
154 1 0.0731464752 0.0331397821 0.0445828046 0.4117259552 0.2
155 1 0.0379581363 0.0925494115 0.0554773976 0.5764163373 0.2
156 1 0.0140887211 0.0787943758 0.0613017445 0.5764163373 0.2
157 1 0.0672636309 0.0716033250 0.0817222302 0.4117259552 0.2
158 1 0.0725100381 0.0888009927 0.0190304612 0.5764163373 0.2
159 1 0.0697385301 0.0617641202 0.0347938396 0.4117259552 0.2
160 1 0.0916013400 0.0090519333 0.0755162047 0.5764163373 0.2
161 1 0.0094014630 0.0007208894 0.0790892305 0.4117259552 0.2
162 1 0.0717689585 0.0086343668 0.0992358768 0.5764163373 0.2
163 1 0.0447081591 0.0993906795 0.0524258561 0.5764163373 0.2
164 1 0.0585265648 0.0229225256 0.0973733908 0.4117259552 0.2
165 1 0.0267228119 0.0482111253 0.0584935042 0.4117259552 0.2
166 1 0.0434966462 0.0873615537 0.0879142813 0.5764163373 0.2
167 1 0.0737162918 0.0248795391 0.0894214909 0.5764163373 0.2
168 1 0.0032633114 0.0984842909 0.0519578079 0.5764163373 0.2
169 1 0.0613029735 0.0473168299 0.0467201488 0.4117259552 0.2
170 1 0.0046589023 0.0750957909 0.0880596085 0.4117259552 0.2
171 1 0.0520738977 0.0158209629 0.0379498306 0.4117259552 0.2
172 1 0.0691491447 0.0101933737 0.0122784142 0.5764163373 0.2
173 1 0.0204865068 0.0902565431 0.0027043241 0.5764163373 0.2
174 1 0.0450347229 0.0595975248 0.0556349810 0.5764163373 0.2
175 1 0.0846497455 0.0250340999 0.0451151367 0.5764163373 0.2
176 1 0.0800631459 0.0590527519 0.0494134672 0.5764163373 0.2
177 1 0.0946818511 0.0874687912 0.0229172345 0.5764163373 0.2
178 1 0.0892793104 0.0444167061 0.0643509631 0.4117259552 0.2
179 1 0.0661238675 0.0849723946 0.0123487292 0.4117259552 0.2
180 1 0.0163815169 0.0274708654 0.0288021847 0.4117259552 0.2
181 1 0.0424503645 0.0511119944 0.0388679349 0.5764163373 0.2
182 1 0.0867979825 0.0312007789 0.0868789044 0.4117259552 0.2
183 1 0.0194615437 0.0061773329 0.0616267454 0.5764163373 0.2
184 1 0.0790425458 0.0314231924 0.0251550431 0.5764163373 0.2
185 1 0.0140521800 0.0346152845 0.0950598495 0.5764163373 0.2
186 1 0.0203792993 0.0942868874 0.0038745108 0.4117259552 0.2
187 1 0.0210665642 0.0231955121 0.0938129731 0.5764163373 0.2
188 1 0.0556987499 0.0143996075 0.0397947269 0.5764163373 0.2
189 1 0.0099124274 0.0086073675 0.0762464424 0.4117259552 0.2
190 1 0.0793082724 0.0440732351 0.0716283063 0.5764163373 0.2
191 1 0.0431892305 0.0631264614 0.0394747572 0.4117259552 0.2
192 1 0.0736635732 0.0285634088 0.0943525201 0.4117259552 0.2
193 1 0.0450535727 0.0678029203 0.0206276075 0.5764163373 0.2
194 1 0.0751486250 0.0830530781 0.0486704831 0.4117259552 0.2
195 1 0.0485835543 0.0106695807 0.0352621659 0.4117259552 0.2
196 1 0.0066413360 0.0220209076 0.0793250854 0.5764163373 0.2
197 1 0.0004163275 0.0196403393 0.0892885175 0.5764163373 0.2
198 1 0.0032727148 0.0830847268 0.0997909299 0.4117259552 0.2
199 1 0.0553695523 0.0090960449 0.0722515701 0.4117259552 0.2
200 1 0.0953346641 0.0711948626 0.0903725248 0.5764163373 0.2
201 1 0.0101748415 0.0231203476 0.0471704369 0.4117259552 0.2
202 1 0.0858730150 0.0816818323 0.0271198629 0.4117259552 0.2
203 1 0.0441308567 0.0839178642 0.0072061893 0.5764163373 0.2
204 1 0.0272413331 0.0859187965 0.0935658033 0.5764163373 0.2
205 1 0.0681516180 0.0816930499 0.0874345142 0.4117259552 0.2
206 1 0.0544001167 0.0625272086 0.0917287111 0.5764163373 0.2
207 1 0.0386495131 0.0741499632 0.0527896044 0.5764163373 0.2
208 1 0.0352996181 0.0185160297 0.0425497355 0.4117259552 0.2
209 1 0.0859443384 0.0067695091 0.0476634527 0.4117259552 0.2
210 1 0.0658939574 0.0206893690 0.0130654118 0.4117259552 0.2
211 1 0.0147174687 0.0260332329 0.0110881162 0.4117259552 0.2
212 1 0.0578340920 0.0322875596 0.0012373211 0.4117259552 0.2
213 1 0.0078049458 0.0190562436 0.0909153391 0.5764163373 0.2
214 1 0.0159893679 0.0236831902 0.0184992490 0.5764163373 0.2
215 1 0.0299391589 0.0857459846 0.0667970090 0.5764163373 0.2
216 1 0.0064134981 0.0978862426 0.0932578171 0.5764163373 0.2
217 1 0.0566202038 0.0098275280 0.0887006124 0.5764163373 0.2
218 1 0.0299840258 0.0160141741 0.0821404720 0.4117259552 0.2
219 1 0.0124093137 0.0450920340 0.0948171188 0.4117259552 0.2
220 1 0.0306405447 0.0120253338 0.0545365024 0.5764163373 0.2
221 1 0.0378275452 0.0795271170 0.0899238364 0.4117259552 0.2
222 1 0.0924928108 0.0735699028 0.0808636270 0.4117259552 0.2
223 1 0.0994627755 0.0808103485 0.0830050379 0.4117259552 0.2
224 1 0.0093412068 0.0702710210 0.0057124695 0.5764163373 0.2
225 1 0.0159275682 0.0055750557 0.0006792935 0.5764163373 0.2
226 1 0.0600214721 0.0449938092 0.0870785877 0.5764163373 0.2
227 1 0.0227199212 0.0656739772 0.0419774982 0.4117259552 0.2
228 1 0.0004551246 0.0453784655 0.0946863930 0.4117259552 0.2
229 1 0.0878598489 0.0414936082 0.0966084472 0.4117259552 0.2
230 1 0.0689854443 0.0944209344 0.0552012700 0.5764163373 0.2
231 1 0.0616082273 0.0012428913 0.0348579233 0.5764163373 0.2
232 1 0.0324853569 0.0570148496 0.0154583372 0.4117259552 0.2
233 1 0.0827431878 0.0958004846 0.0642562059 0.5764163373 0.2
234 1 0.0365185273 0.0650496716 0.0619430955 0.5764163373 0.2
235 1 0.0752673589 0.0097018181 0.0117701966 0.4117259552 0.2
236 1 0.0103748848 0.0616571375 0.0544657219 0.4117259552 0.2
237 1 0.0564807115 0.0743978700 0.0251442448 0.4117259552 0.2
238 1 0.0593970263 0.0042539934 0.0860692583 0.4117259552 0.2
239 1 0.0927125681 0.0121408144 0.0560839400 0.5764163373 0.2
240 1 0.0186868000 0.0723188337 0.0749660188 0.5764163373 0.2
241 1 0.0147987731 0.0698897643 0.0373137567 0.5764163373 0.2
242 1 0.0939410596 0.0563491188 0.0307855413 0.4117259552 0.2
243 1 0.0881054896 0.0681322349 0.0601134193 0.4117259552 0.2
244 1 0.0746954602 0.0274506512 0.0132833952 0.5764163373 0.2
245 1 0.0880095158 0.0341014980 0.0854266116 0.5764163373 0.2
246 1 0.0816247078 0.0508887650 0.0984418915 0.4117259552 0.2
247 1 0.0414580835 0.0857495209 0.0131325092 0.4117259552 0.2
248 1 0.0306851263 0.0851968406 0.0425343482 0.5764163373 0.2
249 1 0.0949432662 0.0002023243 0.0145960536 0.5764163373 0.2
250 1 0.0116461591 0.0817636880 0.0703265757 0.5764163373 0.2
251 1 0.0884114147 0.0695861377 0.0612257757 0.5764163373 0.2
252 1 0.0831714383 0.0427882237 0.0237023899 0.5764163373 0.2
253 1 0.0288570424 0.0539299022 0.0357237564 0.5764163373 0.2
254 1 0.0392667161 0.0299235223 0.0189604698 0.5764163373 0.2
255 1 0.0917477119 0.0012405980 0.0454093495 0.5764163373 0.2
256 1 0.0402874855 0.0790193095 0.0657757770 0.5764163373 0.2
257 1 0.0300449055 0.0777914343 0.0765652278 0.5764163373 0.2
258 1 0.0503124114 0.0743408685 0.0510109179 0.5764163373 0.2
259 1 0.0209538511 0.0741788648 0.0399987866 0.4117259552 0.2
260 1 0.0778846446 0.0590299258 0.0712372444 0.5764163373 0.2
261 1 0.0848219827 0.0807477472 0.0042117179 0.5764163373 0.2
262 1 0.0696525611 0.0634479847 0.0960053349 0.5764163373 0.2
263 1 0.0558270125 0.0768032455 0.0289541354 0.4117259552 0.2
264 1 0.0330943412 0.0235902722 0.0685233573 0.4117259552 0.2
265 1 0.0687792275 0.0393677494 0.0095434393 0.5764163373 0.2
266 1 0.0945934474 0.0332007333 0.0328869808 0.5764163373 0.2
267 1 0.0897541524 0.0428339130 0.0695581656 0.4117259552 0.2
268 1 0.0612440462 0.0574399024 0.0741019121 0.5764163373 0.2
269 1 0.0145175943 0.0443582358 0.0923463973 0.4117259552 0.2
270 1 0.0637466062 0.0233249626 0.0709187202 0.4117259552 0.2
271 1 0.0642964145 0.0159457811 0.0733527083 0.4117259552 0.2
272 1 0.0930956613 0.0521799374 0.0168477903 0.5764163373 0.2
273 1 0.0456366021 0.0919190086 0.0564078312 0.4117259552 0.2
274 1 0.0544868372 0.0867045164 0.0949166333 0.4117259552 0.2
275 1 0.0934557957 0.0079370355 0.0353732090 0.5764163373 0.2
276 1 0.0111112367 0.0332560333 0.0072905301 0.4117259552 0.2
277 1 0.0554984902 0.0252716646 0.0857309291 0.5764163373 0.2
278 1 0.0399195638 0.0709947495 0.0514526006 0.5764163373 0.2
279 1 0.0357608738 0.0984020895 0.0539547903 0.4117259552 0.2
280 1 0.0200569415 0.0593751347 0.0249808338 0.5764163373 0.2
281 1 0.0475731454 0.0803411161 0.0316304501 0.4117259552 0.2
282 1 0.0891968413 0.0868924095 0.0268899989 0.4117259552 0.2
283 1 0.0829560468 0.0324214517 0.0922675391 0.4117259552 0.2
284 1 0.0107697222 0.0964041880 0.0983998227 0.4117259552 0.2
285 1 0.0782059190 0.0373045337 0.0293188633 0.4117259552 0.2
286 1 0.0383527937 0.0906274469 0.0031226881 0.5764163373 0.2
287 1 0.0063948692 0.0586183834 0.0044613949 0.5764163373 0.2
288 1 0.0472884892 0.0198690010 0.0250011443 0.5764163373 0.2
289 1 0.0033100948 0.0093889886 0.0613834854 0.4117259552 0.2
290 1 0.0569579884 0.0255951097 0.0600199810 0.4117259552 0.2
291 1 0.0188134362 0.0310341020 0.0683971929 0.5764163373 0.2
292 1 0.0994939745 0.0679592307 0.0867700643 0.4117259552 0.2
293 1 0.0462567136 0.0489080161 0.0711281413 0.5764163373 0.2
294 1 0.0647510540 0.0768761358 0.0822346435 0.5764163373 0.2
295 1 0.0071468672 0.0103901368 0.0531964381 0.4117259552 0.2
296 1 0.0706329834 0.0713326161 0.0403916587 0.4117259552 0.2
297 1 0.0368726869 0.0073484594 0.0581098505 0.4117259552 0.2
298 1 0.0944524794 0.0594036885 0.0175998389 0.5764163373 0.2
299 1 0.0015710609 0.0671866617 0.0794905567 0.5764163373 0.2
300 1 0.0072427226 0.0184122393 0.0200785921 0.5764163373 0.2
301 1 0.0939007500 0.0467551039 0.0829784414 0.4117259552 0.2
302 1 0.0802666459 0.0012336631 0.0327882480 0.5764163373 0.2
303 1 0.0256906135 0.0636272689 0.0609600941 0.4117259552 0.2
304 1 0.0342427563 0.0385493874 0.0375686813 0.4117259552 0.2
305 1 0.0796599001 0.0635571147 0.0372631401 0.5764163373 0.2
306 1 0.0616087178 0.0546671695 0.0435463892 0.4117259552 0.2
307 1 0.0680874127 0.0342135047 0.0605308611 0.5764163373 0.2
308 1 0.0731811566 0.0234712241 0.0715944375 0.4117259552 0.2
309 1 0.0921915746 0.0830744037 0.0269462164 0.4117259552 0.2
310 1 0.0083209251 0.0120881592 0.0367716961 0.5764163373 0.2
311 1 0.0507591551 0.0700090520 0.0635802338 0.5764163373 0.2
312 1 0.0515836404 0.0385789202 0.0952696049 0.4117259552 0.2
313 1 0.0311062167 0.0639980693 0.0279598763 0.4117259552 0.2
314 1 0.0025939937 0.0371039121 0.0967917663 0.5764163373 0.2
315 1 0.0204012924 0.0553202139 0.0394116040 0.5764163373 0.2
316 1 0.0963523503 0.0258437935 0.0804280572 0.5764163373 0.2
317 1 0.0557605621 0.0945246449 0.0303893485 0.4117259552 0.2
318 1 0.0339084698 0.0752228889 0.0241689040 0.4117259552 0.2
319 1 0.0620615496 0.0803949227 0.0283381457 0.4117259552 0.2
320 1 0.0107437209 0.0406530271 0.0911749344 0.4117259552 0.2
321 1 0.0511586659 0.0453342052 0.0838873871 0.4117259552 0.2
322 1 0.0007609852 0.0983619675 0.0967707946 0.5764163373 0.2
323 1 0.0249640717 0.0995179627 0.0420334546 0.4117259552 0.2
324 1 0.0129537061 0.0508219859 0.0256083289 0.5764163373 0.2
325 1 0.0736421508 0.0599357006 0.0420819986 0.4117259552 0.2
326 1 0.0862358990 0.0511525857 0.0473770597 0.5764163373 0.2
327 1 0.0109855233 0.0945024787 0.0342256276 0.5764163373 0.2
328 1 0.0339653746 0.0646984648 0.0867631496 0.5764163373 0.2
329 1 0.0467869052 0.0135027288 0.0916749674 0.4117259552 0.2
330 1 0.0931383301 0.0214300604 0.0903921690 0.5764163373 0.2
331 1 0.0937835024 0.0275814443 0.0765843674 0.5764163373 0.2
332 1 0.0528174251 0.0684758881 0.0061613254 0.5764163373 0.2
333 1 0.0995438532 0.0759446646 0.0034341273 0.4117259552 0.2
334 1 0.0804745065 0.0137697323 0.0023231603 0.5764163373 0.2
335 1 0.0052863184 0.0026227475 0.0204776498 0.5764163373 0.2
336 1 0.0665813222 0.0086338087 0.0939108738 0.4117259552 0.2
337 1 0.0043783869 0.0909729115 0.0351927838 0.5764163373 0.2
338 1 0.0143545969 0.0190217982 0.0096978721 0.4117259552 0.2
339 1 0.0762044315 0.0135772831 0.0898224286 0.5764163373 0.2
340 1 0.0211234315 0.0036839747 0.0581486835 0.4117259552 0.2
341 1 0.0779020592 0.0029549991 0.0925918519 0.5764163373 0.2
342 1 0.0794610196 0.0651916224 0.0498268257 0.4117259552 0.2
343 1 0.0912869574 0.0394075613 0.0268966416 0.5764163373 0.2
344 1 0.0849960031 0.0684751350 0.0148115112 0.5764163373 0.2
345 1 0.0889817375 0.0048140174 0.0742747383 0.5764163373 0.2
346 1 0.0537854726 0.0576111258 0.0873932887 0.4117259552 0.2
347 1 0.0682954880 0.0401114196 0.0651664321 0.4117259552 0.2
348 1 0.0448124871 0.0615591902 0.0568480698 0.5764163373 0.2
349 1 0.0917492198 0.0607130932 0.0992783808 0.4117259552 0.2
350 1 0.0730903455 0.0957858171 0.0863274723 0.4117259552 0.2
351 1 0.0553014529 0.0789622699 0.0385041099 0.5764163373 0.2
352 1 0.0145933744 0.0029802037 0.0483357445 0.5764163373 0.2
353 1 0.0528527697 0.0307872184 0.0734476746 0.4117259552 0.2
354 1 0.0869536244 0.0770802615 0.0539521605 0.5764163373 0.2
355 1 0.0983014640 0.0070870566 0.0450917973 0.5764163373 0.2
356 1 0.0409328330 0.0438450495 0.0752808544 0.4117259552 0.2
357 1 0.0654436674 0.0206600836 0.0195264561 0.5764163373 0.2
358 1 0.0359959662 0.0063411484 0.0572794191 0.5764163373 0.2
359 1 0.0339148380 0.0887622196 0.0283983758 0.5764163373 0.2
360 1 0.0025256691 0.0815865726 0.0375627893 0.5764163373 0.2
361 1 0.0075320700 0.0520617335 0.0307472399 0.5764163373 0.2
362 1 0.0237373233 0.0911933574 0.0089815650 0.4117259552 0.2
363 1 0.0198496962 0.0778394125 0.0057621543 0.5764163373 0.2
364 1 0.0387590659 0.0842099686 0.0984102921 0.4117259552 0.2
365 1 0.0640261768 0.0143350177 0.0875983863 0.5764163373 0.2
366 1 0.0839868836 0.0589281721 0.0499672025 0.5764163373 0.2
367 1 0.0606660121 0.0656671645 0.0137074617 0.4117259552 0.2
368 1 0.0765215613 0.0932800411 0.0758364774 0.5764163373 0.2
369 1 0.0084269906 0.0345065079 0.0358681233 0.5764163373 0.2
370 1 0.0195378129 0.0278199889 0.0306263575 0.4117259552 0.2
371 1 0.0579975920 0.0637088752 0.0702081811 0.4117259552 0.2
372 1 0.0105117559 0.0264483616 0.0780186192 0.5764163373 0.2
373 1 0.0854815171 0.0841169517 0.0868689326 0.4117259552 0.2
374 1 0.0779160177 0.0050774825 0.0172412434 0.5764163373 0.2
375 1 0.0636075307 0.0984137575 0.0569137389 0.4117259552 0.2
376 1 0.0610234466 0.0776671581 0.0945936738 0.4117259552 0.2
377 1 0.0433421347 0.0683205350 0.0954233206 0.4117259552 0.2
378 1 0.0788890669 0.0978602706 0.0531856374 0.5764163373 0.2
379 1 0.0784700042 0.0591146514 0.0225263075 0.5764163373 0.2
380 1 0.0156138342 0.0909086438 0.0634366872 0.5764163373 0.2
381 1 0.0399802332 0.0003773976 0.0144238177 0.5764163373 0.2
382 1 0.0824138603 0.0374799246 0.0688003172 0.5764163373 0.2
383 1 0.0216853056 0.0601944525 0.0665378020 0.5764163373 0.2
384 1 0.0271956406 0.0430335027 0.0961544608 0.4117259552 0.2
385 1 0.0151248280 0.0947105524 0.0985576170 0.4117259552 0.2
386 1 0.0255614413 0.0279632998 0.0041807233 0.4117259552 0.2
387 1 0.0763243833 0.0899244283 0.0088425448 0.4117259552 0.2
388 1 0.0957184723 0.0212307956 0.0903648120 0.4117259552 0.2
389 1 0.0828159884 0.0869851334 0.0912827833 0.5764163373 0.2
390 1 0.0893036055 0.0647224008 0.0524547286 0.4117259552 0.2
391 1 0.0721277438 0.0358725520 0.0017306932 0.4117259552 0.2
392 1 0.0968112175 0.0285723360 0.0687232007 0.5764163373 0.2
393 1 0.0717684112 0.0497877107 0.0993229806 0.4117259552 0.2
394 1 0.0946825068 0.0307924593 0.0136037647 0.4117259552 0.2
395 1 0.0477284313 0.0484081210 0.0709442763 0.5764163373 0.2
396 1 0.0632001063 0.0853490374 0.0519852532 0.4117259552 0.2
397 1 0.0816446025 0.0880452571 0.0858235480 0.5764163373 0.2
398 1 0.0608769199 0.0048501893 0.0316179513 0.4117259552 0.2
399 1 0.0425213487 0.0772847771 0.0221240441 0.4117259552 0.2
400 1 0.0017931316 0.0125265021 0.0300052228 0.4117259552 0.2
401 1 0.0734133805 0.0302440420 0.0241411984 0.5764163373 0.2
402 1 0.0393934748 0.0813513626 0.0612529628 0.4117259552 0.2
403 1 0.0234388429 0.0782994479 0.0946099111 0.4117259552 0.2
404 1 0.0217851747 0.0892940232 0.0667291842 0.5764163373 0.2
405 1 0.0481955448 0.0814712987 0.0137469623 0.4117259552 0.2
406 1 0.0282039389 0.0569210059 0.0597502256 0.5764163373 0.2
407 1 0.0034892886 0.0444563688 0.0092264597 0.5764163373 0.2
408 1 0.0712370346 0.0956501766 0.0686523439 0.4117259552 0.2
409 1 0.0165431282 0.0552093552 0.0298071582 0.4117259552 0.2
410 1 0.0320740127 0.0085291185 0.0509803110 0.5764163373 0.2
411 1 0.0544897860 0.0104120144 0.0100802068 0.4117259552 0.2
412 1 0.0899731547 0.0760414831 0.0527306682 0.5764163373 0.2
413 1 0.0163131713 0.0705120949 0.0728699630 0.4117259552 0.2
414 1 0.0066752212 0.0260296609 0.0808287180 0.4117259552 0.2
415 1 0.0889749654 0.0568971796 0.0316676627 0.5764163373 0.2
416 1 0.0716159944 0.0586134669 0.0103042967 0.5764163373 0.2
417 1 0.0935025418 0.0880195067 0.0781222268 0.5764163373 0.2
418 1 0.0471112721 0.0437528280 0.0816959456 0.5764163373 0.2
419 1 0.0840734006 0.0694642361 0.0627439409 0.5764163373 0.2
420 1 0.0456859685 0.0395523154 0.0371598390 0.5764163373 0.2
421 1 0.0521167834 0.0432437009 0.0658173731 0.5764163373 0.2
422 1 0.0191353943 0.0340233842 0.0358130479 0.5764163373 0.2
423 1 0.0761641777 0.0972500762 0.0788243810 0.4117259552 0.2
424 1 0.0927179905 0.0896160099 0.0897640945 0.5764163373 0.2
425 1 0.0664126404 0.0299298853 0.0013238885 0.5764163373 0.2
426 1 0.0755885501 0.0147969700 0.0894466861 0.4117259552 0.2
427 1 0.0486482185 0.0783927645 0.0273431681 0.5764163373 0.2
428 1 0.0661733860 0.0142566964 0.0738668746 0.5764163373 0.2
429 1 0.0886929026 0.0705130125 0.0135310661 0.4117259552 0.2
430 1 0.0329594588 0.0190876132 0.0574042825 0.4117259552 0.2
431 1 0.0322769601 0.0993842370 0.0702307257 0.4117259552 0.2
432 1 0.0428394293 0.0552469613 0.0964663551 0.5764163373 0.2
433 1 0.0025560207 0.0335144316 0.0599081319 0.5764163373 0.2
434 1 0.0357426122 0.0995323197 0.0807877639 0.4117259552 0.2
435 1 0.0548517891 0.0048830794 0.0846964035 0.5764163373 0.2
436 1 0.0552218718 0.0460338165 0.0285305733 0.4117259552 0.2
437 1 0.0119388416 0.0568965521 0.0615266298 0.4117259552 0.2
438 1 0.0443352422 0.0583693616 0.0164554611 0.4117259552 0.2
439 1 0.0635327238 0.0217449759 0.0867757223 0.5764163373 0.2
440 1 0.0260063279 0.0886242260 0.0202832864 0.5764163373 0.2
441 1 0.0267856026 0.0587430461 0.0116228093 0.5764163373 0.2
442 1 0.0392113561 0.0085166457 0.0654553103 0.4117259552 0.2
443 1 0.0377716191 0.0749026189 0.0829571851 0.4117259552 0.2
444 1 0.0369103021 0.0385458377 0.0636823769 0.4117259552 0.2
445 1 0.0768845107 0.0658062084 0.0388942472 0.4117259552 0.2
446 1 0.0487916945 0.0972391718 0.0026578410 0.5764163373 0.2
447 1 0.0652236571 0.0224867227 0.0755163217 0.5764163373 0.2
448 1 0.0636891747 0.0073570234 0.0725334520 0.5764163373 0.2
449 1 0.0385863517 0.0130729831 0.0981265470 0.5764163373 0.2
450 1 0.0794198863 0.0814558004 0.0883626932 0.4117259552 0.2
451 1 0.0945624445 0.0485468092 0.0117182218 0.5764163373 0.2
452 1 0.0188014457 0.0753487728 0.0663177269 0.4117259552 0.2
453 1 0.0566683052 0.0327496333 0.0924054136 0.4117259552 0.2
454 1 0.0910282440 0.0045623132 0.0873887813 0.4117259552 0.2
455 1 0.0826085698 0.0168749342 0.0182535832 0.4117259552 0.2
456 1 0.0898183334 0.0276171125 0.0870139519 0.4117259552 0.2
457 1 0.0308008389 0.0545549686 0.0064016800 0.5764163373 0.2
458 1 0.0207664237 0.0963623160 0.0924623844 0.5764163373 0.2
459 1 0.0433021329 0.0050943233 0.0106378765 0.5764163373 0.2
460 1 0.0930757740 0.0481274285 0.0883758476 0.4117259552 0.2
461 1 0.0456225932 0.0340800561 0.0230069449 0.5764163373 0.2
462 1 0.0419209554 0.0851042187 0.0713971277 0.4117259552 0.2
463 1 0.0441462110 0.0655119842 0.0207961925 0.5764163373 0.2
464 1 0.0557349131 0.0583846552 0.0904155702 0.5764163373 0.2
465 1 0.0962613804 0.0523912339 0.0198884717 0.5764163373 0.2
466 1 0.0243723727 0.0335642419 0.0647869837 0.4117259552 0.2
467 1 0.0562903128 0.0933293378 0.0184434546 0.5764163373 0.2
468 1 0.0678953034 0.0199639787 0.0855085868 0.4117259552 0.2
469 1 0.0546345029 0.0041499554 0.0542777972 0.4117259552 0.2
470 1 0.0838490959 0.0698478085 0.0380320354 0.4117259552 0.2
471 1 0.0892393063 0.0289851604 0.0240620555 0.4117259552 0.2
472 1 0.0402809080 0.0040123962 0.0975162153 0.4117259552 0.2
473 1 0.0534449042 0.0634219551 0.0614055976 0.5764163373 0.2
474 1 0.0006707715 0.0131047227 0.0225999394 0.5764163373 0.2
475 1 0.0224298300 0.0663859644 0.0516655236 0.4117259552 0.2
476 1 0.0279561008 0.0565028602 0.0197639458 0.4117259552 0.2
477 1 0.0112269007 0.0107753405 0.0285774559 0.4117259552 0.2
478 1 0.0810037394 0.0274264986 0.0135803970 0.5764163373 0.2
479 1 0.0347059650 0.0900170319 0.0806688887 0.5764163373 0.2
480 1 0.0346481776 0.0535547071 0.0028181078 0.4117259552 0.2
481 1 0.0924948416 0.0897638936 0.0852254018 0.4117259552 0.2
482 1 0.0568675590 0.0417929291 0.0674077009 0.4117259552 0.2