ITEM: TIMESTEP
192
ITEM: NUMBER OF ATOMS
1000
ITEM: BOX BOUNDS pp pp pp
0 12.3587
0 12.3587
0 12.3587
ITEM: ATOMS id type x y z radius Transparency
0 1 7.25093 5.14492 5.55379 0.576416 0.2
1 1 1.27531 4.20842 0.234392 0.576416 0.2
2 1 3.41564 5.09256 9.02041 0.576416 0.2
3 1 9.41024 4.56197 11.0468 0.576416 0.2
4 1 1.61022 10.9787 4.63492 0.576416 0.2
5 1 10.6587 6.88856 8.17243 0.576416 0.2
6 1 0.473598 12.0287 3.78004 0.411726 0.2
7 1 7.93264 5.6928 2.03919 0.576416 0.2
8 1 9.82296 11.005 1.97275 0.411726 0.2
9 1 9.51957 11.7648 8.89494 0.576416 0.2
10 1 6.98635 0.743913 4.22576 0.411726 0.2
11 1 11.0052 5.67625 5.42887 0.411726 0.2
12 1 10.8348 7.88048 12.0908 0.576416 0.2
13 1 9.63683 1.98344 6.09837 0.411726 0.2
14 1 5.80355 0.31693 5.20055 0.411726 0.2
15 1 1.4088 11.718 3.57841 0.576416 0.2
16 1 9.39234 7.86341 9.3491 0.576416 0.2
17 1 11.3524 4.28228 0.399793 0.576416 0.2
18 1 1.47449 1.98414 1.33104 0.576416 0.2
19 1 12.2571 2.2538 11.4701 0.576416 0.2
20 1 7.11217 10.3574 3.12195 0.411726 0.2
21 1 4.35779 7.97272 5.35804 0.576416 0.2
22 1 5.37791 6.01418 0.966659 0.411726 0.2
23 1 0.312325 8.69606 0.690445 0.411726 0.2
24 1 10.0044 1.21942 9.72367 0.576416 0.2
25 1 2.20509 12.0123 6.03992 0.576416 0.2
26 1 7.60953 7.68881 6.30658 0.411726 0.2
27 1 8.19286 2.63523 5.18222 0.576416 0.2
28 1 6.37582 10.5495 4.05715 0.576416 0.2
29 1 3.03457 0.864333 2.60699 0.411726 0.2
30 1 0.784556 9.74814 9.5845 0.411726 0.2
31 1 9.89901 5.28406 9.86646 0.576416 0.2
32 1 11.7781 7.69088 0.668541 0.576416 0.2
33 1 3.75201 0.468307 6.84965 0.576416 0.2
34 1 11.0619 11.786 11.931 0.576416 0.2
35 1 10.5783 3.92001 4.08031 0.576416 0.2
36 1 0.152661 5.78643 8.649 0.411726 0.2
37 1 3.58692 5.60119 7.99168 0.576416 0.2
38 1 0.42881 0.0890167 0.889223 0.411726 0.2
39 1 0.82789 7.01693 3.68539 0.576416 0.2
40 1 12.3505 10.4339 9.51666 0.576416 0.2
41 1 3.30872 8.63828 10.7872 0.411726 0.2
42 1 6.42576 1.38892 4.70284 0.411726 0.2
43 1 8.80249 4.08058 11.7106 0.411726 0.2
44 1 1.34071 8.20403 3.68625 0.576416 0.2
45 1 5.72317 0.112545 4.20581 0.576416 0.2
46 1 5.07987 0.0944298 3.37681 0.411726 0.2
47 1 6.41169 6.38348 0.683659 0.576416 0.2
48 1 1.59209 1.47558 7.29359 0.411726 0.2
49 1 4.26211 0.727047 2.43889 0.576416 0.2
50 1 10.3568 0.0862793 4.09609 0.411726 0.2
51 1 1.07298 5.5842 1.55499 0.576416 0.2
52 1 9.77843 4.29074 6.34258 0.576416 0.2
53 1 9.21645 9.54999 5.78193 0.411726 0.2
54 1 3.26055 12.1266 9.87866 0.411726 0.2
55 1 7.18007 8.12367 11.9883 0.576416 0.2
56 1 9.11554 11.142 0.492876 0.576416 0.2
57 1 11.4341 2.38046 12.2776 0.411726 0.2
58 1 8.60232 8.27945 8.34478 0.576416 0.2
59 1 4.63617 0.74455 10.0069 0.411726 0.2
60 1 4.29359 6.63292 5.6816 0.576416 0.2
61 1 1.10618 11.3102 6.53147 0.411726 0.2
62 1 1.19024 9.18591 7.09 0.576416 0.2
63 1 1.10909 6.69578 4.92888 0.576416 0.2
64 1 5.87196 6.03421 4.36109 0.411726 0.2
65 1 6.61555 10.4935 6.32568 0.576416 0.2
66 1 10.1507 0.504253 5.09944 0.576416 0.2
67 1 10.0809 0.623916 2.98396 0.411726 0.2
68 1 12.2835 12.2737 2.01 0.576416 0.2
69 1 6.28145 5.16857 1.37003 0.576416 0.2
70 1 8.84792 9.83715 0.584666 0.411726 0.2
71 1 8.76388 8.64034 2.7539 0.576416 0.2
72 1 4.99628 9.18396 3.75726 0.411726 0.2
73 1 6.5267 1.57574 7.38579 0.411726 0.2
74 1 0.929566 0.890125 0.260567 0.576416 0.2
75 1 9.25838 4.46347 3.65791 0.411726 0.2
76 1 8.20084 10.5652 6.67283 0.411726 0.2
77 1 11.7388 11.4851 9.4866 0.411726 0.2
78 1 5.23593 2.41276 0.37723 0.576416 0.2
79 1 4.73157 2.45584 9.11827 0.576416 0.2
80 1 6.61235 1.75054 8.55012 0.576416 0.2
81 1 8.2328 7.55138 11.9133 0.576416 0.2
82 1 9.16349 8.862 12.3209 0.576416 0.2
83 1 4.63537 10.1652 2.94941 0.411726 0.2
84 1 7.05747 5.22151 8.27901 0.411726 0.2
85 1 11.6716 11.3499 6.08374 0.411726 0.2
86 1 6.60233 11.4405 7.36627 0.576416 0.2
87 1 0.62522 3.85667 3.48592 0.576416 0.2
88 1 9.30445 0.602497 5.87962 0.576416 0.2
89 1 9.82217 6.6455 5.30453 0.576416 0.2
90 1 9.41925 9.79074 3.15296 0.411726 0.2
91 1 11.6295 9.95972 2.52812 0.576416 0.2
92 1 2.37584 5.38586 4.64047 0.411726 0.2
93 1 4.62093 9.64221 6.19971 0.576416 0.2
94 1 2.8255 4.85504 7.20603 0.576416 0.2
95 1 0.780969 9.55922 2.67618 0.576416 0.2
96 1 12.2666 5.62815 3.28712 0.576416 0.2
97 1 7.78268 8.344 10.5038 0.576416 0.2
98 1 5.8367 8.85859 8.41486 0.411726 0.2
99 1 10.433 5.80082 11.3288 0.576416 0.2
100 1 1.7057 9.98533 9.20761 0.576416 0.2
101 1 3.84469 4.43097 9.89976 0.411726 0.2
102 1 3.24385 8.12169 9.40272 0.576416 0.2
103 1 5.8494 0.119163 8.38194 0.411726 0.2
104 1 7.7319 6.10989 0.966988 0.411726 0.2
105 1 10.1029 9.68991 3.89048 0.576416 0.2
106 1 4.10635 12.0972 8.41479 0.411726 0.2
107 1 4.75253 3.56964 0.434871 0.576416 0.2
108 1 9.49064 5.31444 2.20379 0.576416 0.2
109 1 9.46244 1.76112 7.76654 0.576416 0.2
110 1 4.4989 1.8553 5.91126 0.576416 0.2
111 1 3.64765 9.75608 9.92515 0.411726 0.2
112 1 2.71163 12.2988 1.67283 0.411726 0.2
113 1 0.467669 10.4312 4.57966 0.411726 0.2
114 1 11.1544 11.1022 8.79585 0.411726 0.2
115 1 4.33519 1.68784 8.33172 0.576416 0.2
116 1 9.08098 5.70679 5.53635 0.576416 0.2
117 1 7.97337 4.39705 0.148762 0.411726 0.2
118 1 3.67985 4.00459 11.235 0.576416 0.2
119 1 5.30327 3.74212 5.3775 0.576416 0.2
120 1 11.5453 2.55119 9.62468 0.411726 0.2
121 1 11.0264 6.65606 1.08885 0.576416 0.2
122 1 0.233681 11.8158 9.06292 0.411726 0.2
123 1 1.99468 6.9063 3.03796 0.576416 0.2
124 1 5.3588 9.97221 3.82467 0.411726 0.2
125 1 12.2232 8.42285 9.17034 0.576416 0.2
126 1 10.4989 2.91043 9.31327 0.576416 0.2
127 1 8.66608 2.56959 2.75324 0.411726 0.2
128 1 6.9659 0.990237 12.1267 0.411726 0.2
129 1 4.4259 0.80723 6.21061 0.411726 0.2
130 1 7.66066 5.30782 10.8914 0.576416 0.2
131 1 5.01382 0.422094 0.395572 0.411726 0.2
132 1 3.4546 5.24717 12.2673 0.576416 0.2
133 1 11.3827 8.66101 2.75155 0.576416 0.2
134 1 12.3104 6.98881 4.31181 0.411726 0.2
135 1 11.6602 6.23292 10.915 0.411726 0.2
136 1 8.56236 8.03388 6.08751 0.411726 0.2
137 1 5.9624 10.2451 5.18274 0.411726 0.2
138 1 8.7791 6.43837 3.83973 0.576416 0.2
139 1 7.40954 9.24843 7.16843 0.411726 0.2
140 1 11.6321 0.949402 1.40582 0.576416 0.2
141 1 9.74357 3.86512 8.22357 0.576416 0.2
142 1 10.6337 9.11067 11.3134 0.411726 0.2
143 1 5.98377 8.81319 4.30791 0.576416 0.2
144 1 1.71952 6.61813 7.52703 0.411726 0.2
145 1 1.80431 6.47632 6.40452 0.411726 0.2
146 1 5.14206 8.10799 8.12548 0.411726 0.2
147 1 11.3702 6.46069 11.9189 0.576416 0.2
148 1 11.8015 3.74794 7.81588 0.411726 0.2
149 1 9.3376 0.303376 4.03849 0.576416 0.2
150 1 8.44573 3.33926 8.62676 0.411726 0.2
151 1 3.72611 2.08854 3.33571 0.411726 0.2
152 1 4.6466 8.6991 2.21931 0.411726 0.2
153 1 8.11044 2.56285 3.76245 0.411726 0.2
154 1 2.8289 0.36556 8.23418 0.411726 0.2
155 1 6.92337 6.81598 1.85213 0.576416 0.2
156 1 3.06171 2.62562 4.90527 0.576416 0.2
157 1 2.17743 2.14362 2.57428 0.411726 0.2
158 1 7.77304 3.94563 4.20356 0.576416 0.2
159 1 11.6595 0.166912 6.86944 0.411726 0.2
160 1 6.50991 5.64895 3.26307 0.576416 0.2
161 1 11.5864 11.5249 2.13227 0.411726 0.2
162 1 3.46566 3.52617 6.68488 0.576416 0.2
163 1 1.50799 9.82977 3.76982 0.576416 0.2
164 1 3.28966 10.032 1.85568 0.411726 0.2
165 1 2.07816 9.67971 6.54758 0.411726 0.2
166 1 4.37949 11.4346 11.017 0.576416 0.2
167 1 10.2136 6.44164 12.2988 0.576416 0.2
168 1 5.08336 1.59892 2.88937 0.576416 0.2
169 1 0.992306 6.60033 6.95253 0.411726 0.2
170 1 2.34738 11.7362 7.585 0.411726 0.2
171 1 8.8837 11.7718 2.9143 0.411726 0.2
172 1 3.24644 5.2489 10.1617 0.576416 0.2
173 1 6.06555 2.10491 3.6576 0.576416 0.2
174 1 8.14567 1.30194 11.9558 0.576416 0.2
175 1 5.81742 3.87054 7.84956 0.576416 0.2
176 1 0.946234 9.29654 1.33906 0.576416 0.2
177 1 1.02493 7.42059 2.55833 0.576416 0.2
178 1 11.783 6.30152 5.23462 0.411726 0.2
179 1 11.184 4.67364 4.72549 0.411726 0.2
180 1 11.9748 3.56931 3.68444 0.411726 0.2
181 1 10.4243 11.9815 1.69344 0.576416 0.2
182 1 3.92378 9.60076 1.2057 0.411726 0.2
183 1 7.39243 1.69823 6.57745 0.576416 0.2
184 1 0.482156 8.31433 10.307 0.576416 0.2
185 1 10.4653 7.6171 5.59014 0.576416 0.2
186 1 6.30484 5.1208 4.6882 0.411726 0.2
187 1 4.74382 10.7919 8.85712 0.576416 0.2
188 1 11.219 4.59886 10.5505 0.576416 0.2
189 1 2.36741 3.53177 11.1088 0.411726 0.2
190 1 10.8307 4.73666 2.21889 0.576416 0.2
191 1 2.83242 2.62238 8.47728 0.411726 0.2
192 1 5.52643 6.57217 5.80226 0.411726 0.2
193 1 2.76424 4.3281 6.09597 0.576416 0.2
194 1 3.90429 3.59868 10.3555 0.411726 0.2
195 1 8.4546 1.36046 5.13046 0.411726 0.2
196 1 2.8724 5.53424 2.97925 0.576416 0.2
197 1 6.02509 10.2665 8.59324 0.576416 0.2
198 1 1.10676 10.8006 9.33654 0.411726 0.2
199 1 10.1881 11.469 8.04735 0.411726 0.2
200 1 1.43795 2.55849 11.9023 0.576416 0.2
201 1 7.82441 3.09963 1.6405 0.411726 0.2
202 1 0.882505 9.30734 0.18235 0.411726 0.2
203 1 2.52408 1.66787 9.92364 0.576416 0.2
204 1 2.37032 6.64773 5.09591 0.576416 0.2
205 1 4.94446 6.732 2.02717 0.411726 0.2
206 1 7.35219 11.4145 2.78644 0.576416 0.2
207 1 4.23844 12.3461 5.3537 0.576416 0.2
208 1 0.678938 7.55292 6.52372 0.411726 0.2
209 1 2.19772 5.23906 0.00942969 0.411726 0.2
210 1 2.31607 4.35147 12.312 0.411726 0.2
211 1 2.39654 0.720881 1.75058 0.411726 0.2
212 1 5.0973 1.6166 4.6965 0.411726 0.2
213 1 6.31395 7.85499 2.62587 0.576416 0.2
214 1 0.509538 10.7533 8.4803 0.576416 0.2
215 1 2.9428 11.1159 11.5116 0.576416 0.2
216 1 0.811272 2.78336 4.09862 0.576416 0.2
217 1 12.1582 0.458698 4.17306 0.576416 0.2
218 1 7.41346 10.5571 10.2912 0.411726 0.2
219 1 12.2328 3.74136 2.31054 0.411726 0.2
220 1 3.50887 6.13053 11.1986 0.576416 0.2
221 1 4.67094 8.84901 7.12863 0.411726 0.2
222 1 7.7176 11.8009 9.21122 0.411726 0.2
223 1 0.078458 8.56724 11.4834 0.411726 0.2
224 1 6.76252 6.82303 6.49528 0.576416 0.2
225 1 5.96724 4.40389 8.9587 0.576416 0.2
226 1 11.8377 2.34134 6.54631 0.576416 0.2
227 1 5.79839 6.65675 2.10028 0.411726 0.2
228 1 7.29425 9.97836 8.58113 0.411726 0.2
229 1 0.424056 7.304 10.7058 0.411726 0.2
230 1 3.30427 1.76175 8.96187 0.576416 0.2
231 1 2.18519 11.0957 8.55801 0.576416 0.2
232 1 9.44536 11.3041 4.84238 0.411726 0.2
233 1 9.91656 10.1695 0.655253 0.576416 0.2
234 1 1.21718 6.07724 2.82656 0.576416 0.2
235 1 10.838 1.15473 2.73318 0.411726 0.2
236 1 10.0678 3.67439 1.95639 0.411726 0.2
237 1 0.918753 10.0224 5.52824 0.411726 0.2
238 1 6.75522 1.26782 11.3799 0.411726 0.2
239 1 6.75201 3.65948 8.52353 0.576416 0.2
240 1 10.2952 6.18235 6.91806 0.576416 0.2
241 1 5.75079 5.03815 7.18305 0.576416 0.2
242 1 7.72535 2.79181 6.41518 0.411726 0.2
243 1 12.2615 11.9253 11.365 0.411726 0.2
244 1 10.9223 0.583014 12.0996 0.576416 0.2
245 1 11.9113 3.14903 0.44443 0.576416 0.2
246 1 10.0189 7.93169 2.842 0.411726 0.2
247 1 7.34654 6.19182 3.57656 0.411726 0.2
248 1 4.09441 5.93958 9.7329 0.576416 0.2
249 1 9.32578 4.63454 8.99877 0.576416 0.2
250 1 11.7894 12.0038 0.524184 0.576416 0.2
251 1 3.54211 11.666 4.6053 0.576416 0.2
252 1 6.75249 0.897115 5.77213 0.576416 0.2
253 1 4.08785 11.8341 2.4914 0.576416 0.2
254 1 7.5704 1.27437 9.43997 0.576416 0.2
255 1 5.87983 2.28631 9.28899 0.576416 0.2
256 1 3.96551 4.53173 3.50961 0.576416 0.2
257 1 8.14082 9.87396 3.26711 0.576416 0.2
258 1 7.15627 11.5424 0.53344 0.576416 0.2
259 1 1.49026 4.95021 3.42226 0.411726 0.2
260 1 4.15207 9.30044 5.00385 0.576416 0.2
261 1 1.77522 11.7505 2.04642 0.576416 0.2
262 1 7.70035 11.0572 1.54546 0.576416 0.2
263 1 0.386576 8.37448 1.53644 0.411726 0.2
264 1 10.0422 2.3939 3.75534 0.411726 0.2
265 1 4.2549 11.8791 9.93741 0.576416 0.2
266 1 2.74136 11.154 6.79704 0.576416 0.2
267 1 0.0982657 3.3281 1.301 0.411726 0.2
268 1 12.264 6.45837 2.16484 0.576416 0.2
269 1 1.63186 4.63425 7.1255 0.411726 0.2
270 1 5.71981 12.1308 7.13872 0.411726 0.2
271 1 4.03317 10.7466 2.6641 0.411726 0.2
272 1 0.504946 0.266029 6.50638 0.576416 0.2
273 1 8.28346 6.4862 10.0998 0.411726 0.2
274 1 6.62435 0.108604 9.29097 0.411726 0.2
275 1 2.11294 8.62815 10.8556 0.576416 0.2
276 1 10.2439 7.19816 3.38813 0.411726 0.2
277 1 4.40319 3.56696 4.41807 0.576416 0.2
278 1 7.47803 3.76765 3.04512 0.576416 0.2
279 1 6.26885 5.19266 6.29539 0.411726 0.2
280 1 11.9779 10.3707 0.623625 0.576416 0.2
281 1 2.69239 9.42859 7.13367 0.411726 0.2
282 1 10.9544 10.8443 4.18379 0.411726 0.2
283 1 6.29679 4.43427 3.43651 0.411726 0.2
284 1 10.0437 10.4384 2.8996 0.411726 0.2
285 1 9.19161 1.69432 5.3728 0.411726 0.2
286 1 3.01742 0.701608 4.96346 0.576416 0.2
287 1 2.498 9.885 2.54677 0.576416 0.2
288 1 11.9135 1.2929 0.167411 0.576416 0.2
289 1 10.6488 5.05729 3.74602 0.411726 0.2
290 1 11.3792 3.67366 3.0888 0.411726 0.2
291 1 10.0956 0.458624 8.58773 0.576416 0.2
292 1 11.7748 0.0618504 9.42607 0.411726 0.2
293 1 7.99194 0.7575 3.82137 0.576416 0.2
294 1 5.05304 3.74214 11.2421 0.576416 0.2
295 1 7.48704 7.71636 8.66124 0.411726 0.2
296 1 0.468053 10.6131 3.73127 0.411726 0.2
297 1 9.13234 4.59157 5.64758 0.411726 0.2
298 1 6.95605 8.98051 5.09604 0.576416 0.2
299 1 11.8907 10.5801 5.11811 0.576416 0.2
300 1 2.76186 0.791141 3.66608 0.576416 0.2
301 1 3.31892 12.0592 7.4802 0.411726 0.2
302 1 7.57189 7.23359 7.57745 0.576416 0.2
303 1 1.86559 8.38012 2.79127 0.411726 0.2
304 1 4.37705 4.93012 9.3121 0.411726 0.2
305 1 10.1552 6.36192 4.1776 0.576416 0.2
306 1 3.51944 0.4656 9.4553 0.411726 0.2
307 1 11.1694 0.611192 10.5485 0.576416 0.2
308 1 4.12754 9.67912 8.75688 0.411726 0.2
309 1 11.8256 5.28399 12.3271 0.411726 0.2
310 1 3.98405 7.54554 6.36192 0.576416 0.2
311 1 2.95925 2.31985 12.016 0.576416 0.2
312 1 0.720075 8.54967 2.70207 0.411726 0.2
313 1 0.038763 3.91401 6.03492 0.411726 0.2
314 1 8.6821 9.79794 9.93232 0.576416 0.2
315 1 4.28163 3.1391 1.53361 0.576416 0.2
316 1 3.25327 11.0956 5.58282 0.576416 0.2
317 1 6.19753 0.661064 7.72638 0.411726 0.2
318 1 3.55784 0.0892588 11.9732 0.411726 0.2
319 1 8.51536 6.60719 8.32921 0.411726 0.2
320 1 11.4124 1.18108 6.56087 0.411726 0.2
321 1 10.49 2.83978 7.36349 0.411726 0.2
322 1 4.01082 12.2851 0.713385 0.576416 0.2
323 1 11.0701 3.1507 4.66551 0.411726 0.2
324 1 8.83286 10.4081 2.21286 0.576416 0.2
325 1 9.33929 7.90119 5.1865 0.411726 0.2
326 1 7.62215 6.3611 4.54095 0.576416 0.2
327 1 0.536449 11.5634 2.80252 0.576416 0.2
328 1 4.08242 0.151461 3.9455 0.576416 0.2
329 1 7.41664 6.20105 7.23675 0.411726 0.2
330 1 11.7897 10.089 11.2567 0.576416 0.2
331 1 7.44454 2.66716 8.34242 0.576416 0.2
332 1 5.39395 11.5967 0.781097 0.576416 0.2
333 1 8.51852 11.3665 2.04157 0.411726 0.2
334 1 9.00353 0.264807 2.37714 0.576416 0.2
335 1 6.39854 3.20901 1.33268 0.576416 0.2
336 1 6.3676 10.8567 11.648 0.411726 0.2
337 1 5.4203 6.93504 3.02248 0.576416 0.2
338 1 7.23189 10.3012 7.42691 0.411726 0.2
339 1 3.17661 1.77145 5.73762 0.576416 0.2
340 1 9.2063 10.5832 4.52044 0.411726 0.2
341 1 8.00637 5.91536 6.34308 0.576416 0.2
342 1 1.8015 1.38593 5.03544 0.411726 0.2
343 1 11.1363 7.16655 10.9007 0.576416 0.2
344 1 4.28568 7.54701 12.3551 0.576416 0.2
345 1 7.95116 11.9162 4.95702 0.576416 0.2
346 1 0.135369 7.79087 3.68151 0.411726 0.2
347 1 0.205176 4.96974 11.9567 0.411726 0.2
348 1 0.433107 5.10053 6.66441 0.576416 0.2
349 1 2.57213 3.09501 5.85736 0.411726 0.2
350 1 7.0472 0.302291 3.41821 0.411726 0.2
351 1 2.21317 5.46065 5.87038 0.576416 0.2
352 1 7.83595 7.10385 3.10126 0.576416 0.2
353 1 3.28913 3.04277 10.7372 0.411726 0.2
354 1 4.5948 2.07919 1.88823 0.576416 0.2
355 1 3.50703 8.77117 2.11394 0.576416 0.2
356 1 12.349 2.09142 0.788778 0.411726 0.2
357 1 4.96087 3.84337 3.38553 0.576416 0.2
358 1 9.57995 5.30094 7.17679 0.576416 0.2
359 1 10.7851 3.1655 6.2637 0.576416 0.2
360 1 3.15874 8.09331 7.14403 0.576416 0.2
361 1 3.27156 3.34088 9.15359 0.576416 0.2
362 1 3.66718 5.70025 3.59456 0.411726 0.2
363 1 6.58054 8.02788 8.40825 0.576416 0.2
364 1 6.68832 2.97779 2.7568 0.411726 0.2
365 1 1.68145 11.9233 12.218 0.576416 0.2
366 1 11.8636 12.0206 3.33675 0.576416 0.2
367 1 7.01846 7.90662 6.97233 0.411726 0.2
368 1 8.26423 4.78801 5.03968 0.576416 0.2
369 1 11.0256 11.9145 4.59731 0.576416 0.2
370 1 0.0820154 3.76497 9.74495 0.411726 0.2
371 1 7.55808 12.1243 4.05841 0.411726 0.2
372 1 4.35712 7.91361 7.49912 0.576416 0.2
373 1 5.23959 6.67725 10.1636 0.411726 0.2
374 1 5.49964 9.26148 2.8967 0.576416 0.2
375 1 6.42339 2.86215 6.01328 0.411726 0.2
376 1 11.4305 2.22081 8.43991 0.411726 0.2
377 1 0.405646 11.9397 10.1717 0.411726 0.2
378 1 4.05398 2.18392 6.96123 0.576416 0.2
379 1 11.8077 3.06669 8.8005 0.576416 0.2
380 1 5.59215 2.07241 11.4095 0.576416 0.2
381 1 7.33561 0.8715 0.964275 0.576416 0.2
382 1 6.03722 10.3564 9.96384 0.576416 0.2
383 1 9.33087 6.64158 9.22965 0.576416 0.2
384 1 11.2034 4.91181 6.22462 0.411726 0.2
385 1 2.81979 4.44514 3.17177 0.411726 0.2
386 1 11.9022 2.88543 7.7137 0.411726 0.2
387 1 4.53474 8.30598 4.37489 0.411726 0.2
388 1 4.17837 5.33668 10.8631 0.411726 0.2
389 1 1.2899 8.28272 5.97228 0.576416 0.2
390 1 5.92278 6.09522 8.99258 0.411726 0.2
391 1 11.9009 11.2717 12.1524 0.411726 0.2
392 1 11.4747 5.68374 8.18396 0.576416 0.2
393 1 7.55837 1.4731 8.0224 0.411726 0.2
394 1 7.56709 1.02126 5.17936 0.411726 0.2
395 1 8.73571 9.66454 8.72158 0.576416 0.2
396 1 5.34943 11.1755 10.1639 0.411726 0.2
397 1 0.265015 10.8238 1.47621 0.576416 0.2
398 1 5.70686 7.87692 4.54037 0.411726 0.2
399 1 4.98841 5.29599 6.28638 0.411726 0.2
400 1 4.25212 6.48578 4.09251 0.411726 0.2
401 1 1.39339 2.02869 10.5207 0.576416 0.2
402 1 11.4997 8.07843 11.2237 0.411726 0.2
403 1 3.96226 8.72577 3.32416 0.411726 0.2
404 1 3.23267 4.61684 2.13528 0.576416 0.2
405 1 4.94483 9.49808 8.30026 0.411726 0.2
406 1 8.68196 11.6674 7.1855 0.576416 0.2
407 1 9.62153 3.40362 3.29767 0.576416 0.2
408 1 2.20261 9.61098 10.3345 0.411726 0.2
409 1 2.58633 10.1006 1.16469 0.411726 0.2
410 1 9.0471 1.18506 1.09389 0.576416 0.2
411 1 3.46781 4.38184 8.04974 0.411726 0.2
412 1 5.29898 2.81592 2.87772 0.576416 0.2
413 1 10.2882 10.1496 1.9147 0.411726 0.2
414 1 5.34048 11.7627 2.74919 0.411726 0.2
415 1 6.92981 4.20067 1.9131 0.576416 0.2
416 1 6.53307 11.4849 10.2019 0.576416 0.2
417 1 10.2656 11.9241 0.471837 0.576416 0.2
418 1 6.66442 9.11849 10.8922 0.576416 0.2
419 1 10.4866 11.0733 10.1443 0.576416 0.2
420 1 5.62163 8.4032 10.2469 0.576416 0.2
421 1 7.81968 8.52757 3.59558 0.576416 0.2
422 1 8.79381 1.22555 10.9595 0.576416 0.2
423 1 7.39987 4.42073 8.79884 0.411726 0.2
424 1 10.4224 1.91962 6.73365 0.576416 0.2
425 1 5.80451 8.56455 11.6006 0.576416 0.2
426 1 8.60837 3.42439 4.10042 0.411726 0.2
427 1 1.00208 8.01682 7.36891 0.576416 0.2
428 1 7.99043 0.407866 5.88595 0.576416 0.2
429 1 1.67798 8.93367 8.22278 0.411726 0.2
430 1 10.902 5.6925 9.40551 0.411726 0.2
431 1 5.49424 6.75317 8.02199 0.411726 0.2
432 1 10.0857 6.5766 10.1743 0.576416 0.2
433 1 5.55244 2.86229 10.4804 0.576416 0.2
434 1 10.5204 0.802231 1.80663 0.411726 0.2
435 1 0.953737 0.326131 2.75903 0.576416 0.2
436 1 2.87817 11.2281 10.4247 0.411726 0.2
437 1 11.2111 8.1739 8.1898 0.411726 0.2
438 1 9.4017 3.45891 5.67527 0.411726 0.2
439 1 11.7515 8.21432 4.23733 0.576416 0.2
440 1 6.85341 9.08608 9.4792 0.576416 0.2
441 1 0.421773 11.0609 11.2086 0.576416 0.2
442 1 8.43977 8.85853 9.64724 0.411726 0.2
443 1 12.3444 6.85964 7.61319 0.411726 0.2
444 1 4.52935 2.37263 10.5167 0.411726 0.2
445 1 3.92159 6.90875 7.65089 0.411726 0.2
446 1 2.95945 4.25817 4.51204 0.576416 0.2
447 1 9.11832 11.9235 10.0292 0.576416 0.2
448 1 3.85372 10.6672 12.2623 0.576416 0.2
449 1 8.8416 3.57757 2.33693 0.576416 0.2
450 1 10.7991 10.0642 7.67734 0.411726 0.2
451 1 6.47256 1.25378 2.64127 0.576416 0.2
452 1 3.93265 9.51129 2.73983 0.411726 0.2
453 1 7.50612 3.88821 11.4167 0.411726 0.2
454 1 4.43336 4.26743 12.0923 0.411726 0.2
455 1 1.79109 12.0559 10.6322 0.411726 0.2
456 1 3.3731 7.03794 5.38962 0.411726 0.2
457 1 7.22682 4.96246 4.03817 0.576416 0.2
458 1 3.37872 3.46625 0.25909 0.576416 0.2
459 1 2.46778 11.0196 2.93813 0.576416 0.2
460 1 2.74695 10.9692 1.88179 0.411726 0.2
461 1 3.73427 10.912 1.71151 0.576416 0.2
462 1 8.16151 6.40227 0.0891558 0.411726 0.2
463 1 10.4383 3.52467 10.6327 0.576416 0.2
464 1 9.95615 11.5469 5.79559 0.576416 0.2
465 1 3.5942 2.24696 10.0794 0.576416 0.2
466 1 8.66941 3.70068 5.22792 0.411726 0.2
467 1 7.63171 1.96644 11.1585 0.576416 0.2
468 1 11.9683 4.89221 7.72209 0.411726 0.2
469 1 2.70153 1.12693 7.82994 0.411726 0.2
470 1 8.50567 9.64288 12.2007 0.411726 0.2
471 1 1.51006 10.266 6.21947 0.411726 0.2
472 1 8.52939 1.75978 7.42465 0.411726 0.2
473 1 0.165721 7.67148 8.30951 0.576416 0.2
474 1 11.7294 10.8317 3.33881 0.576416 0.2
475 1 1.16488 10.097 7.51007 0.411726 0.2
476 1 2.18514 2.30985 5.65259 0.411726 0.2
477 1 6.8448 7.32181 3.60679 0.411726 0.2
478 1 5.71388 2.20755 1.55731 0.576416 0.2
479 1 2.13243 9.03282 4.37414 0.576416 0.2
480 1 0.79096 8.47024 11.9187 0.411726 0.2
481 1 7.43541 5.45642 2.86992 0.411726 0.2
482 1 4.33195 1.36576 0.81972 0.411726 0.2
483 1 10.1767 4.13911 2.87041 0.411726 0.2
484 1 1.74932 11.0979 9.92464 0.411726 0.2
485 1 5.35351 6.94001 0.0174088 0.411726 0.2
486 1 7.11725 10.5013 12.3251 0.576416 0.2
487 1 4.55226 7.01741 11.3305 0.576416 0.2
488 1 1.41041 5.57313 5.19149 0.411726 0.2
489 1 7.64967 6.47105 8.5686 0.411726 0.2
490 1 5.33015 1.1825 6.0616 0.411726 0.2
491 1 12.0598 8.52462 5.98319 0.576416 0.2
492 1 10.4215 4.22232 5.28789 0.576416 0.2
493 1 4.80074 5.01669 0.627864 0.576416 0.2
494 1 9.69051 0.194188 10.8855 0.576416 0.2
495 1 1.96449 2.74344 8.76281 0.411726 0.2
496 1 0.546528 2.93206 10.7251 0.576416 0.2
497 1 10.1659 2.6313 1.97066 0.411726 0.2
498 1 2.15351 5.31106 1.16388 0.576416 0.2
499 1 12.3083 7.02471 3.08359 0.411726 0.2
500 1 6.48363 1.49423 0.490804 0.576416 0.2
501 1 3.56569 6.9903 0.579145 0.411726 0.2
502 1 6.34445 4.22959 5.84213 0.576416 0.2
503 1 6.69076 3.02502 4.05529 0.576416 0.2
504 1 11.8263 0.991603 2.5707 0.411726 0.2
505 1 9.4817 2.12487 11.6897 0.411726 0.2
506 1 6.18885 11.6828 3.46962 0.411726 0.2
507 1 1.00023 2.95653 0.781837 0.576416 0.2
508 1 7.6116 9.74479 10.6767 0.411726 0.2
509 1 4.67974 3.58716 2.32547 0.411726 0.2
510 1 4.07336 1.37529 4.65678 0.576416 0.2
511 1 9.42347 1.1778 3.25537 0.411726 0.2
512 1 4.96603 3.8934 9.45214 0.411726 0.2
513 1 9.38763 9.75316 1.48315 0.411726 0.2
514 1 1.98823 7.48262 12.2131 0.576416 0.2
515 1 9.46785 4.55576 1.25641 0.576416 0.2
516 1 5.88035 8.57828 5.48046 0.576416 0.2
517 1 10.4379 1.86804 11.5803 0.576416 0.2
518 1 1.56568 9.45332 11.8151 0.576416 0.2
519 1 4.44378 6.09003 12.2533 0.576416 0.2
520 1 2.94433 0.39266 0.750325 0.576416 0.2
521 1 2.36716 8.11237 8.71031 0.411726 0.2
522 1 9.03411 9.59903 4.13823 0.411726 0.2
523 1 6.22496 0.449234 0.475195 0.411726 0.2
524 1 8.24591 7.03678 0.955573 0.576416 0.2
525 1 0.158535 9.19075 3.78589 0.576416 0.2
526 1 6.6033 3.34054 0.159371 0.576416 0.2
527 1 10.8545 10.8419 1.42831 0.576416 0.2
528 1 0.449331 1.50725 10.6684 0.411726 0.2
529 1 9.18989 10.9357 8.01093 0.576416 0.2
530 1 5.55154 4.1978 1.57423 0.576416 0.2
531 1 8.70409 5.43054 8.32163 0.411726 0.2
532 1 10.6519 7.38404 4.39322 0.576416 0.2
533 1 9.43389 6.50632 6.374 0.411726 0.2
534 1 10.5302 1.36525 0.520594 0.576416 0.2
535 1 0.563063 9.92774 6.46423 0.576416 0.2
536 1 3.82853 10.5769 10.7708 0.411726 0.2
537 1 10.057 10.4113 8.60235 0.576416 0.2
538 1 12.0506 2.30279 4.93004 0.576416 0.2
539 1 2.23955 11.9233 9.50889 0.576416 0.2
540 1 1.58112 8.51857 0.2414 0.576416 0.2
541 1 10.4532 11.686 3.42169 0.576416 0.2
542 1 11.8977 3.79857 10.7101 0.411726 0.2
543 1 7.08295 6.91979 10.9675 0.576416 0.2
544 1 9.4863 0.78638 0.0737935 0.576416 0.2
545 1 2.7789 1.70056 0.8142 0.411726 0.2
546 1 9.96926 7.18573 1.51513 0.576416 0.2
547 1 9.07726 11.9665 5.21057 0.411726 0.2
548 1 9.27348 9.7976 11.5055 0.576416 0.2
549 1 1.34356 2.30936 8.12301 0.576416 0.2
550 1 11.0286 10.8985 7.69403 0.411726 0.2
551 1 11.487 6.12357 6.34536 0.576416 0.2
552 1 1.95892 7.22239 10.9082 0.576416 0.2
553 1 3.91302 10.3468 4.50835 0.576416 0.2
554 1 4.24399 8.44448 11.0642 0.576416 0.2
555 1 7.83374 9.44173 9.32864 0.411726 0.2
556 1 0.0948743 1.42906 3.24195 0.576416 0.2
557 1 12.2457 9.76212 5.61466 0.411726 0.2
558 1 7.74686 2.88716 0.645412 0.411726 0.2
559 1 10.2602 5.82083 8.48454 0.576416 0.2
560 1 1.85492 5.24813 2.61161 0.411726 0.2
561 1 8.90889 3.45166 7.34833 0.576416 0.2
562 1 9.41523 3.20545 11.4841 0.576416 0.2
563 1 6.67748 0.278532 11.3609 0.576416 0.2
564 1 8.27228 2.78871 10.1478 0.411726 0.2
565 1 11.3124 3.8065 9.71216 0.576416 0.2
566 1 1.05005 10.9566 0.252461 0.576416 0.2
567 1 1.98908 7.68017 1.05096 0.576416 0.2
568 1 6.7733 6.55493 9.4171 0.576416 0.2
569 1 3.27021 2.68242 3.69654 0.411726 0.2
570 1 8.06635 10.4015 9.24886 0.411726 0.2
571 1 4.98087 8.52774 6.23476 0.576416 0.2
572 1 7.45049 8.14745 4.76433 0.411726 0.2
573 1 3.61303 1.07769 0.101506 0.576416 0.2
574 1 1.06238 7.59156 8.82139 0.411726 0.2
575 1 11.564 7.78654 1.99882 0.576416 0.2
576 1 6.65895 9.57805 7.68264 0.411726 0.2
577 1 7.56816 5.52799 9.0724 0.576416 0.2
578 1 1.60456 1.85061 9.41306 0.411726 0.2
579 1 10.6491 8.59959 1.75355 0.576416 0.2
580 1 5.63699 0.870977 9.25653 0.576416 0.2
581 1 6.88634 2.37201 4.99372 0.576416 0.2
582 1 5.2487 11.4536 7.89443 0.576416 0.2
583 1 4.48646 3.8448 8.27867 0.576416 0.2
584 1 12.0014 7.25126 6.59565 0.576416 0.2
585 1 2.2605 10.5513 7.45109 0.411726 0.2
586 1 3.7834 6.55061 8.6718 0.411726 0.2
587 1 9.27404 8.49208 7.28518 0.411726 0.2
588 1 10.8732 6.60759 5.66679 0.411726 0.2
589 1 7.5404 8.51393 6.46052 0.411726 0.2
590 1 2.45931 7.25689 4.08675 0.576416 0.2
591 1 6.68563 10.8694 2.18795 0.411726 0.2
592 1 2.23632 2.83165 1.71813 0.411726 0.2
593 1 10.143 2.33983 8.28319 0.411726 0.2
594 1 11.7088 5.25849 6.9729 0.411726 0.2
595 1 4.90674 0.967388 3.86946 0.576416 0.2
596 1 10.6499 10.6956 11.4512 0.576416 0.2
597 1 7.91552 5.5868 3.58663 0.411726 0.2
598 1 7.41047 2.00198 0.240631 0.411726 0.2
599 1 1.78155 3.73591 4.33216 0.576416 0.2
600 1 2.82669 9.14483 6.14979 0.576416 0.2
601 1 9.7654 7.32074 8.19107 0.411726 0.2
602 1 2.70195 9.7484 0.0400948 0.411726 0.2
603 1 12.2309 1.90616 9.04599 0.576416 0.2
604 1 11.8711 10.596 7.59689 0.411726 0.2
605 1 4.57871 11.8219 1.40957 0.411726 0.2
606 1 3.83837 2.94869 7.67688 0.411726 0.2
607 1 11.3189 6.06082 4.31904 0.576416 0.2
608 1 1.1713 4.44414 1.2102 0.411726 0.2
609 1 10.0082 8.1897 10.121 0.411726 0.2
610 1 5.56354 0.105215 10.7806 0.576416 0.2
611 1 8.44662 4.55686 2.91267 0.576416 0.2
612 1 6.13906 1.36906 6.5276 0.411726 0.2
613 1 11.9776 1.15204 9.8531 0.411726 0.2
614 1 7.29398 9.15926 11.8469 0.411726 0.2
615 1 0.71406 2.20645 0.143115 0.411726 0.2
616 1 9.57195 3.94185 9.98991 0.576416 0.2
617 1 9.88467 9.60497 9.45053 0.576416 0.2
618 1 8.59867 1.73963 4.17856 0.576416 0.2
619 1 6.52793 4.15215 11.5612 0.576416 0.2
620 1 5.93276 9.42107 0.127783 0.576416 0.2
621 1 1.51722 8.05864 11.4355 0.411726 0.2
622 1 0.78041 5.86974 3.8623 0.411726 0.2
623 1 6.3573 3.29945 5.04255 0.411726 0.2
624 1 5.43221 6.98313 9.04251 0.576416 0.2
625 1 10.5824 5.19039 0.366042 0.576416 0.2
626 1 9.05671 8.67097 11.1227 0.411726 0.2
627 1 6.34963 1.17656 10.1232 0.576416 0.2
628 1 11.9522 11.7264 8.47055 0.411726 0.2
629 1 3.93339 11.6383 6.53088 0.576416 0.2
630 1 10.8333 9.1004 6.87037 0.411726 0.2
631 1 10.9598 10.7715 6.65221 0.576416 0.2
632 1 11.2618 1.67271 9.79072 0.411726 0.2
633 1 11.7817 7.61311 5.31264 0.576416 0.2
634 1 12.1253 4.64857 3.84087 0.411726 0.2
635 1 8.27235 11.1946 4.02269 0.411726 0.2
636 1 7.83939 2.74384 12.03 0.576416 0.2
637 1 3.23461 6.65843 4.40514 0.411726 0.2
638 1 8.39209 6.14221 11.349 0.576416 0.2
639 1 8.82447 2.28462 1.86059 0.411726 0.2
640 1 2.83712 4.23736 10.0923 0.411726 0.2
641 1 5.52274 3.03336 4.31239 0.576416 0.2
642 1 9.22137 7.59791 3.62084 0.411726 0.2
643 1 9.26978 2.90609 8.3241 0.411726 0.2
644 1 10.3881 9.48219 2.66558 0.411726 0.2
645 1 12.1433 5.15393 9.84354 0.576416 0.2
646 1 2.44769 12.0994 11.35 0.411726 0.2
647 1 2.30254 7.481 7.91169 0.411726 0.2
648 1 12.3145 7.45458 9.75312 0.411726 0.2
649 1 9.29174 5.75253 12.1602 0.576416 0.2
650 1 10.7637 3.3192 8.18481 0.411726 0.2
651 1 4.82349 2.71724 5.21941 0.411726 0.2
652 1 1.36136 4.42395 5.61358 0.576416 0.2
653 1 11.8607 1.48048 7.30335 0.411726 0.2
654 1 10.2345 8.46848 8.48794 0.411726 0.2
655 1 2.72746 6.61444 8.57416 0.576416 0.2
656 1 4.29668 4.33687 1.51393 0.576416 0.2
657 1 11.3199 9.74549 3.83915 0.576416 0.2
658 1 2.1193 4.05413 2.35348 0.576416 0.2
659 1 8.18904 11.3353 12.1289 0.411726 0.2
660 1 8.16511 12.2553 8.3332 0.576416 0.2
661 1 3.48231 5.34535 4.52588 0.576416 0.2
662 1 1.03881 2.73548 7.10749 0.411726 0.2
663 1 10.8389 9.5485 1.07473 0.576416 0.2
664 1 11.2901 9.05718 8.76014 0.576416 0.2
665 1 6.47604 5.37583 9.41447 0.576416 0.2
666 1 4.90609 7.75338 1.74696 0.576416 0.2
667 1 9.05896 7.40647 10.2866 0.411726 0.2
668 1 9.16667 7.67294 0.618704 0.576416 0.2
669 1 2.14955 3.43575 0.0655722 0.411726 0.2
670 1 0.100159 3.3365 6.95144 0.576416 0.2
671 1 12.0697 9.03073 1.88022 0.576416 0.2
672 1 0.440735 1.94144 5.60733 0.411726 0.2
673 1 9.73773 7.79427 11.3239 0.576416 0.2
674 1 4.41928 5.83783 1.32192 0.411726 0.2
675 1 8.98304 0.785931 8.38559 0.576416 0.2
676 1 4.29905 6.47979 2.89732 0.576416 0.2
677 1 0.581828 1.29123 1.63967 0.576416 0.2
678 1 12.127 5.03667 5.52912 0.576416 0.2
679 1 1.7462 3.17348 10.1524 0.411726 0.2
680 1 2.70203 7.20722 0.532032 0.411726 0.2
681 1 2.52463 5.96025 10.2745 0.411726 0.2
682 1 1.23488 6.76265 10.3495 0.411726 0.2
683 1 2.64028 10.2429 4.11808 0.576416 0.2
684 1 2.79634 8.62747 1.07586 0.576416 0.2
685 1 7.915 4.31225 1.8454 0.411726 0.2
686 1 1.26864 5.5622 7.79955 0.576416 0.2
687 1 4.8698 3.11969 7.44404 0.576416 0.2
688 1 0.751451 7.78917 4.76994 0.576416 0.2
689 1 5.40944 5.64093 5.52192 0.411726 0.2
690 1 4.51432 3.29067 6.37872 0.411726 0.2
691 1 9.80654 10.9812 12.0084 0.411726 0.2
692 1 8.55821 8.93633 6.51551 0.576416 0.2
693 1 8.267 6.11461 7.45701 0.411726 0.2
694 1 8.74898 8.32268 1.5734 0.576416 0.2
695 1 7.13929 2.57475 10.2192 0.576416 0.2
696 1 2.26006 3.67356 7.83345 0.576416 0.2
697 1 9.12256 5.98722 1.24426 0.576416 0.2