ITEM: TIMESTEP
4
ITEM: NUMBER OF ATOMS
1000
ITEM: BOX BOUNDS pp pp pp
0 9.64445
0 9.64445
0 9.64445
ITEM: ATOMS id type x y z radius Transparency
0 1 0.5767652272039251 3.2019691999368631 7.9076361964987392 0.4358495000000000 0.2
1 1 5.0762526550491547 1.0307751612450204 3.1065953820491430 0.5124900000000000 0.2
2 1 7.9880049693270534 2.9629269551997521 8.0577529493944802 0.4162825000000000 0.2
3 1 1.2299783596435223 5.4566783916011268 6.0183762927152369 0.5000000000000000 0.2
4 1 5.6415835162354728 8.9216153125783570 1.7403977704917504 0.5380900000000000 0.2
5 1 3.7552523460634868 0.2570083337866415 7.8683063283521850 0.5163150000000000 0.2
6 1 8.2901591963060817 3.0593950937709899 0.5544677448004353 0.3666925000000000 0.2
7 1 8.8559244171479126 0.5924681949200110 5.8154250942555450 0.3766435000000000 0.2
8 1 5.1841324642580098 9.5356256656793974 3.7385971939898024 0.7919650000000000 0.2
9 1 0.8622764836118632 1.4719343478885414 6.1277916728096384 0.4401755000000000 0.2
10 1 0.8293854188894864 5.9662735634842301 4.0031022868334691 0.6164200000000000 0.2
11 1 4.7623862108486872 6.9773980022633690 0.7602190329518406 0.4648655000000000 0.2
12 1 9.0581128396736368 7.9141891966415336 7.6813765233023439 0.5510300000000000 0.2
13 1 7.8583457694807981 6.5696454829802082 8.6066832781362930 0.7180050000000000 0.2
14 1 6.6628081019735390 5.8244825342808975 1.8434055775515430 0.4623000000000000 0.2
15 1 8.5875085266960927 1.3115893297748391 3.4550709446323329 0.6967300000000000 0.2
16 1 5.9783596604635179 7.7510161434084264 8.8478008223810978 0.6073950000000000 0.2
17 1 7.2409553016930701 7.8119259476621226 3.8455508225967003 0.3707300000000000 0.2
18 1 4.4354460378852059 8.4850232005686106 0.5374679637325237 0.4403200000000000 0.2
19 1 7.7177799320355795 7.6436563256441552 2.0161591551944444 0.3662995000000000 0.2
20 1 3.5296538611883181 3.2607264274269308 3.4084069653313849 0.7897999999999999 0.2
21 1 7.0487017166043646 1.2355197582030863 6.8789669659362875 0.6512000000000000 0.2
22 1 8.9301318526337816 6.6815889536821924 6.2208043016382035 0.3904030000000000 0.2
23 1 6.7336210301078632 7.4916556619474051 4.2842317791121891 0.3714140000000000 0.2
24 1 4.0723916238359168 6.4160229551236307 9.4502896632908246 0.3616105000000000 0.2
25 1 4.7843865554515901 2.9680513399601058 0.4547984894093259 0.5147250000000000 0.2
26 1 3.1286517849438269 3.7710476929497578 4.8733643865838276 0.7802550000000000 0.2
27 1 4.5320543129569888 8.0054414143466754 6.4249981588855798 0.4616785000000000 0.2
28 1 0.2940710044545304 2.1155113319298975 2.6140666640504322 0.4039595000000000 0.2
29 1 7.6889723222689978 4.0830132403080919 7.9365471040286089 0.7415450000000000 0.2
30 1 5.0979933297860009 7.7246201685969194 0.0210058691398574 0.5892150000000000 0.2
31 1 2.2194302735760711 7.8855803875780515 2.7045809651506665 0.6583500000000000 0.2
32 1 8.4511311163331868 1.4866816647413934 1.3002257096648024 0.7759100000000000 0.2
33 1 1.4983065831226272 1.5971930999674360 7.5043172449013147 0.4519360000000000 0.2
34 1 7.8515372179314973 1.8722364803375371 7.0041874521158265 0.3747375000000000 0.2
35 1 7.4791775415813895 8.9516201155094901 7.9896403437588850 0.4120415000000000 0.2
36 1 7.8583248205436229 8.9403140290515211 4.3347883746776485 0.5750800000000000 0.2
37 1 1.1347391361313923 0.4258255798269271 1.3467882021496871 0.5162500000000000 0.2
38 1 4.8225929428907799 0.4209239874399765 4.9684635623558631 0.5941850000000000 0.2
39 1 3.1836080815261276 4.4080025264732514 6.9463373584362049 0.6515550000000000 0.2
40 1 2.1113581804553032 0.7519784183628161 7.8012210307339913 0.6209500000000000 0.2
41 1 0.5207734708805940 4.4833827214352855 8.1395784071033823 0.4182075000000000 0.2
42 1 8.7509547731742057 5.0862252673181345 9.0160899905416976 0.4843040000000000 0.2
43 1 0.0609319495496197 9.0039581213120314 7.4505270454230716 0.7351350000000000 0.2
44 1 2.6226341667841999 6.5920892298792415 3.4734261657568988 0.3681760000000000 0.2
45 1 9.6354360509470443 5.6071212840787030 1.4366091268145993 0.4605120000000000 0.2
46 1 5.2824745519010525 7.7978082950860212 1.7908269959981507 0.5314000000000000 0.2
47 1 6.5964057532223190 3.5924260987738403 0.1087036216955586 0.3917005000000000 0.2
48 1 9.0809058907649103 3.2780268329771802 5.1072330933921313 0.3983635000000000 0.2
49 1 9.5253262818617319 5.7065539380560555 8.9272378034485040 0.4824545000000000 0.2
50 1 2.9306883435066315 8.9867273546551676 0.5931008210535538 0.4489110000000000 0.2
51 1 1.8263840774643225 1.4033268660604177 4.3021700683862960 0.6179400000000000 0.2
52 1 0.8751567011068349 6.5125649815107867 1.3188059110300572 0.3742770000000000 0.2
53 1 9.2002779379877229 7.3741973501944003 4.6725727602398486 0.6348300000000000 0.2
54 1 3.3968230574403488 6.0182240506222291 9.3975877813605777 0.4236810000000000 0.2
55 1 1.1324328947776883 5.4834287677599294 1.2355763218726783 0.6781700000000001 0.2
56 1 5.0921673626230586 9.4376032428526440 5.6873378487071351 0.3870130000000000 0.2
57 1 3.2339940511427168 4.9729105221088838 8.8339943241199190 0.6346650000000000 0.2
58 1 0.6141871433374291 6.4090843898515892 3.1203959626280828 0.3912565000000000 0.2
59 1 3.7877603576344532 3.3376147079719969 7.6499781199703678 0.7547750000000000 0.2
60 1 6.9290881929796466 5.0972840614362767 5.8168685437349748 0.3948225000000000 0.2
61 1 6.7147824213113161 4.2442380528071020 2.6255007972227005 0.4921890000000000 0.2
62 1 6.0309851177041462 5.6042822817020035 5.4872211089605560 0.4629365000000000 0.2
63 1 6.8585081600211772 0.8815586577969021 8.7862637148273777 0.3616485000000000 0.2
64 1 9.2534064825838520 8.1626070307414782 0.2823541589161055 0.4217555000000000 0.2
65 1 6.9826086927965454 2.9689230439646757 8.0798605565921822 0.5792300000000000 0.2
66 1 3.7503687906094911 4.8090898349502496 3.3598909040536631 0.4498485000000000 0.2
67 1 3.8207487576176895 7.0877668264241143 7.5681910378999993 0.4212635000000000 0.2
68 1 4.5434949283019561 1.3495159954851970 0.9730528328508705 0.4587420000000000 0.2
69 1 4.4439860863248883 8.3783202157051306 3.6617076871038829 0.5822300000000000 0.2
70 1 7.4688936621075905 4.6834816791672012 2.8413953880161955 0.4044480000000000 0.2
71 1 9.4296834831992395 1.5836187389756753 8.2478429168756620 0.3764255000000000 0.2
72 1 8.5538219948820498 2.7918859741010036 8.6205046012684345 0.3927705000000000 0.2
73 1 7.1067937490420352 6.2415949722160233 6.8352670661267290 0.5562500000000000 0.2
74 1 0.0364306354709752 0.7088235063532168 0.8232297824582198 0.7324700000000000 0.2
75 1 2.2121099028092792 1.3509442743115765 3.3219916264659801 0.4321290000000000 0.2
76 1 2.7903812979920355 5.4937131265883634 3.9034140791423075 0.7884350000000000 0.2
77 1 6.3540591960673902 4.2886529115797050 0.6209218396295105 0.4313700000000000 0.2
78 1 8.8982533994556761 5.8821587947266814 0.3215392213367838 0.7426700000000001 0.2
79 1 1.2550387570358918 9.5285860781195613 7.5521390291808883 0.5587299999999999 0.2
80 1 9.2404840441223435 8.7643495182132618 4.3202516160655762 0.7997950000000000 0.2
81 1 3.0449499966049878 8.5245594809608143 2.0441118647372067 0.4579850000000000 0.2
82 1 8.5960407502131950 0.4511578938808997 4.7405225943028064 0.7346549999999999 0.2
83 1 2.4692626549597017 0.4478166011316831 5.4753816200673988 0.4215560000000000 0.2
84 1 0.8712743121210152 6.8934574095210470 7.7572652592531037 0.4607780000000000 0.2
85 1 1.5826930854908456 4.2367713566850229 2.7613175507480801 0.4999980000000000 0.2
86 1 2.8930753266907265 2.6275155868313020 5.1605693079313513 0.3806465000000000 0.2
87 1 2.0380945873645526 2.3612617641129634 7.8036534437369935 0.4997205000000000 0.2
88 1 1.0155023401973093 9.4767457712143042 6.5885849081747105 0.4046105000000000 0.2
89 1 5.3247251571572463 7.3462416264574442 4.9667223827097029 0.5063350000000000 0.2
90 1 8.4294366881995479 8.8824505297917629 0.6703406004457155 0.7369250000000001 0.2
91 1 2.4955507862202562 3.4373393612938674 7.6647863381537729 0.5393500000000000 0.2
92 1 2.6043787468062551 4.5591186306605875 7.9553637556114838 0.5210050000000001 0.2
93 1 3.5161119991030709 4.7884124314019330 4.4717489698928272 0.3715265000000000 0.2
94 1 8.3165031951162263 6.8517288040559787 9.6595554421649972 0.4147785000000000 0.2
95 1 5.2141403826887673 5.3581202937084598 9.3788223595168141 0.5593250000000000 0.2
96 1 1.5632654749606127 1.0057204949954284 2.8189022504110444 0.4392310000000000 0.2
97 1 0.3053124750435733 5.2019498999097529 6.2906204764444391 0.4929155000000000 0.2
98 1 2.7509151080294858 2.2267503023589126 3.0125910181403341 0.5589350000000000 0.2
99 1 0.2622381467158146 2.3238360307827199 8.0973734946765319 0.5029200000000000 0.2
100 1 1.3822970460650690 2.1878374462224994 3.0569889119284701 0.7714299999999999 0.2
101 1 7.6713621087658330 3.2610012196824125 9.1754262199717616 0.7448150000000000 0.2
102 1 8.7720474740078611 2.2467846538302991 7.6536174901857636 0.7168150000000000 0.2
103 1 5.7903506714507467 3.4635432576932041 0.1960997178888465 0.4075345000000000 0.2
104 1 0.6997166903917174 6.0699557926166099 9.0332769276400846 0.4109360000000000 0.2
105 1 6.1761474207694551 8.8629703339401846 4.0371641552265105 0.4319070000000000 0.2
106 1 3.5459755768110544 1.6324996885292136 9.0929443628079074 0.6148200000000000 0.2
107 1 1.6755257403513268 0.1423648512539439 5.8805479159855789 0.5135600000000000 0.2
108 1 9.4566608715981531 0.5621922469267938 3.8428332755999604 0.5124750000000000 0.2
109 1 6.8329591829271834 7.6277951469943082 7.2053161803535817 0.4586710000000000 0.2
110 1 2.6156366840843224 2.1147199133588281 5.8940984070182330 0.5212350000000000 0.2
111 1 9.4404801275176169 9.2618000958261177 1.0579955081414469 0.4070420000000000 0.2
112 1 8.7840234493678686 0.1445283179825522 1.5208224789621583 0.5330650000000000 0.2
113 1 7.1305174927431665 0.6215653362639880 5.9220770580561881 0.4884800000000000 0.2
114 1 8.2233796587682839 1.8797590857303212 2.4801296089447908 0.4865350000000000 0.2
115 1 7.6148716463777921 1.0966074397814478 2.1650152894300012 0.4578045000000000 0.2
116 1 6.1681022910094132 8.2669333877231335 2.3526390573781009 0.3993510000000000 0.2
117 1 5.4277441304065723 6.6177220344256851 4.2782633798829766 0.4889610000000000 0.2
118 1 6.5226804930303173 5.9175602754682437 0.9327302472463769 0.4600195000000000 0.2
119 1 3.7795785468765017 8.8899282627998932 1.2755329894586096 0.6193600000000000 0.2
120 1 4.1240392651335069 5.3971370995893180 9.4663516633651792 0.5329250000000000 0.2
121 1 0.5176262951328968 9.5713780384887261 4.0368479137680904 0.4515735000000000 0.2
122 1 5.6873023716706799 2.0228893621638666 4.5208363161942540 0.6554050000000000 0.2
123 1 1.9748285036691866 4.7422125925137948 9.2156024869609183 0.6981200000000000 0.2
124 1 1.5895159734252720 5.2107859738898670 6.8800503216456343 0.3930615000000000 0.2
125 1 4.2260362232544075 6.3924475343843081 5.0749658312205117 0.3694375000000000 0.2
126 1 6.1284409576208922 4.0156458681564420 7.3011362958507506 0.3683290000000000 0.2
127 1 4.6734201979345729 6.1030693439093122 0.3274877989483557 0.4933850000000000 0.2
128 1 5.2811474498324298 2.5627994309282864 7.9566824069295627 0.4001935000000000 0.2
129 1 6.7492786759210803 6.9668731740117602 0.8157403066132278 0.6196250000000000 0.2
130 1 7.9199415694983664 6.7354760530143212 2.5931098452215169 0.3728560000000000 0.2
131 1 6.4969418183412868 0.6835405899280680 4.9745918017911155 0.6510100000000000 0.2
132 1 1.2419154548297502 2.5166744967731463 0.6364559141243961 0.4206400000000000 0.2
133 1 7.3619178140412407 7.5474256811667919 1.3588350538787890 0.3834890000000000 0.2
134 1 0.8466525670996325 6.0925907025001420 5.1816605806807461 0.5621200000000000 0.2
135 1 1.5830598398410438 1.8763612630518025 1.9348965245763077 0.3754805000000000 0.2
136 1 9.2946819541454850 9.3708899228800089 5.4703484476694095 0.5002350000000000 0.2
137 1 4.9740493202223730 6.5244972995941186 5.0940665668780856 0.3880280000000000 0.2
138 1 4.5126765652747078 4.9340888272093837 0.9035515011124140 0.7032150000000000 0.2
139 1 6.5249693315468944 7.1508956120460327 6.1956156041541277 0.6983700000000000 0.2
140 1 6.6203694862389701 6.8528958630338579 8.3890238127690928 0.4542710000000000 0.2
141 1 8.4862557532403322 0.4291077035264708 0.6195584081489618 0.4566025000000000 0.2
142 1 6.2099405101367839 2.7166396172283034 2.2035554809873816 0.3743885000000000 0.2
143 1 2.3097837687645844 1.1199144956130447 8.8268602454237204 0.4806770000000000 0.2
144 1 6.3606659294354442 2.8400957376407563 4.0901902496204237 0.4859215000000000 0.2
145 1 0.0322767320587736 1.7712692473972795 1.4191789812292503 0.4706720000000000 0.2
146 1 2.9201297671126283 3.7669116301047372 1.2730393756933225 0.5096900000000000 0.2
147 1 6.5888403631873098 8.6828017268838149 7.5511213849425545 0.6143800000000000 0.2
148 1 5.1615032769158251 -0.0106790425419146 2.3836392132867354 0.5011050000000000 0.2
149 1 9.5632172213118061 6.6459765655483247 1.4093994024393988 0.5804450000000000 0.2
150 1 4.7598463202773189 9.0128966011717626 4.7351376008780308 0.3770395000000000 0.2
151 1 3.8631150220699753 2.9884330654561384 9.1418056621754324 0.7732599999999999 0.2
152 1 6.7698011680089465 0.4886947737973275 9.4754287962001982 0.4307570000000000 0.2
153 1 7.7682577780707600 0.2209860427444802 2.3327509318079289 0.3905040000000000 0.2
154 1 0.2466532317724880 9.5997898741268664 2.0037432735837979 0.6826100000000001 0.2
155 1 2.5382094996705584 5.4412360130761641 7.3044526435662673 0.5766050000000000 0.2
156 1 9.4428858976035173 0.7187545794224166 2.8203500550280540 0.5191050000000000 0.2
157 1 2.5732588724367140 2.5233580777183269 1.3074417019784761 0.4106890000000000 0.2
158 1 5.7523939896578229 6.8379247193980053 8.4593875452843932 0.4093745000000000 0.2
159 1 9.4494974278631965 5.2963805830056367 7.1333283235070573 0.4335330000000000 0.2
160 1 6.8282627766027737 8.4806385116405938 6.3125200021568375 0.6605200000000000 0.2
161 1 0.3018248445894303 2.7464654361288203 8.9215152638866666 0.4215420000000000 0.2
162 1 7.5256971722601360 6.8727934734849843 3.9464302965120472 0.6129550000000000 0.2
163 1 7.6372579346241194 4.4447022800857034 1.9811464466126512 0.4975395000000000 0.2
164 1 3.9241857700996756 3.7321869240514611 0.5957622236270312 0.5540900000000000 0.2
165 1 5.3925642728210486 2.5500419744407625 2.0853992852475933 0.4538265000000000 0.2
166 1 4.2718183825083722 6.0053762345953725 6.6797802656858893 0.4059420000000000 0.2
167 1 6.0881970880919951 2.5632123721222988 7.9328066457951971 0.4023925000000000 0.2
168 1 3.3067971594822607 7.5724937335875140 8.1482813418689002 0.4874140000000000 0.2
169 1 8.4030031006724304 3.4864496556510618 2.6212143977741476 0.3875285000000000 0.2
170 1 2.6973396874243254 9.0404462849192289 4.4346751342881134 0.6087600000000000 0.2
171 1 6.4240286357306138 3.9913003992444480 8.0823561569098672 0.4647605000000000 0.2
172 1 3.1677012244762182 5.9076981632506369 2.8722569615985249 0.3842370000000000 0.2
173 1 4.1830454709570581 0.6944513196442398 3.6665348060141576 0.4935495000000000 0.2
174 1 7.0024086985198615 0.3821277695340989 7.8836837896641940 0.6664150000000000 0.2
175 1 3.9437884691044687 8.0591214530003317 8.5611651029458251 0.4035855000000000 0.2
176 1 7.4507231837793286 7.6630808198891529 6.5070671356021528 0.3725095000000000 0.2
177 1 4.1672616742298709 1.0068079972969084 7.2269510650551680 0.4475955000000000 0.2
178 1 5.8971762194583519 0.7199673135305640 0.6745393514566930 0.4688440000000000 0.2
179 1 0.4124151842871552 2.2480060665143742 0.7561100145572877 0.3881465000000000 0.2
180 1 3.3296574186131798 0.5613220542857806 4.0840217661554545 0.4656750000000000 0.2
181 1 0.1227773739021332 7.7781946208453574 6.1214929754684766 0.3877605000000000 0.2
182 1 2.2847476692743003 8.0295345953726880 6.9610323651534687 0.7812600000000000 0.2
183 1 7.6964623180681038 5.2795140435506900 3.2893785417237678 0.3735800000000000 0.2
184 1 3.7602150866576940 7.0095663403917241 4.6742792591084275 0.4885015000000000 0.2
185 1 4.8947233260933682 4.0824311295700886 9.4241835222761754 0.7562449999999999 0.2
186 1 0.1412029464278056 4.2002094968685562 -0.0626196611076731 0.3917555000000000 0.2
187 1 0.1228224110068778 6.8808659311830729 5.6563341160644205 0.5989550000000000 0.2
188 1 1.8479117516300934 4.9312271866883739 2.0566175355860468 0.5107000000000000 0.2
189 1 8.9121662016216554 5.6840611388288940 4.6337498271421094 0.4564810000000000 0.2
190 1 4.8114741903841001 3.3514263216816436 3.8420723404414550 0.3762735000000000 0.2
191 1 8.6623509073048712 4.7618806507017677 1.3081383001173603 0.7685900000000000 0.2
192 1 3.1982960587210938 5.1512874402157749 2.8381558167741061 0.3672850000000000 0.2
193 1 0.7721588601602076 9.1599159907475727 0.7850186347666237 0.6089250000000000 0.2
194 1 8.3944667376763125 8.0472172268211519 5.1292587634414488 0.4995680000000000 0.2
195 1 7.5100439702202433 9.1970035739325180 3.0317847275829402 0.6020400000000000 0.2
196 1 9.1913401140562652 1.6033737498831997 2.3489309812076953 0.5104050000000000 0.2
197 1 8.3999987335647663 2.7795721723730518 1.9736515711328115 0.5590000000000001 0.2
198 1 6.1442080999413760 1.5509977123183598 1.2500880518729558 0.5690250000000000 0.2
199 1 4.2862174847509387 0.4594932889277010 2.6764540672061070 0.5291500000000000 0.2
200 1 7.4932271614580657 0.3487961207216638 1.2739218722289758 0.7091850000000000 0.2
201 1 9.2828143230835227 2.2521838574296824 6.6656863253335032 0.3922940000000000 0.2
202 1 3.4590751349950253 7.6844449995301654 9.1650322983310932 0.4542570000000000 0.2
203 1 8.1339286699436517 6.3151957253689153 3.2967843765459106 0.4367300000000000 0.2
204 1 5.2015952550903961 1.7530988259550717 9.2648910351247373 0.3620035000000000 0.2
205 1 7.5475280517503993 2.2022550507974072 6.3117466317534623 0.4203840000000000 0.2
206 1 6.4507852476428118 5.9788194657730145 4.4546986981647256 0.7108950000000001 0.2
207 1 9.1864986209848301 8.7830416428647187 8.8761150364484251 0.7976950000000000 0.2
208 1 6.7627787440175684 3.8597535766367375 4.5428498198356593 0.6991350000000000 0.2
209 1 2.1642688311981053 8.3676642722901100 1.7003225432464151 0.4522140000000000 0.2
210 1 5.8552896708264592 5.7670470472911139 8.4041775268270165 0.6662150000000000 0.2
211 1 8.6040723703391251 1.1728677130541694 8.7532736806331357 0.6427600000000000 0.2
212 1 6.0457918747518313 6.6952259182777940 7.4129809506492990 0.6864050000000000 0.2
213 1 9.4864680301274369 5.8098248365888097 4.0091243115499067 0.3643480000000000 0.2
214 1 5.1310171654585579 1.0431108845274224 7.0788096308307216 0.3931265000000000 0.2
215 1 2.0933661991755654 2.0594141529517804 0.6345382122539389 0.4988025000000000 0.2
216 1 3.2791230275347472 9.4843360391460632 8.7281941896482227 0.4258295000000000 0.2
217 1 0.7981301062208472 2.6577686377887608 1.7607483501097607 0.7249600000000000 0.2
218 1 2.4205335193367343 6.9692544798651461 8.8999412225711652 0.8004250000000001 0.2
219 1 3.7818169226739866 7.9012023933411140 5.5721106968169103 0.6742950000000000 0.2
220 1 3.6945801002248153 0.0912749888490155 6.7387258630625624 0.6171400000000000 0.2
221 1 3.2006531155880307 7.1097243074666956 7.0616421243565393 0.3789600000000000 0.2
222 1 6.4988460372300851 2.5802428806696365 4.9386124632458053 0.4103385000000000 0.2
223 1 2.7538477634504610 9.0957121341555567 1.4010026341924313 0.3791875000000000 0.2
224 1 2.5463422431998328 0.1450536948133977 3.5058721089216753 0.5900750000000000 0.2
225 1 2.5408334543785696 3.8470818524632588 6.0805218238578123 0.5634000000000000 0.2
226 1 0.3097930454328437 5.9902820277144189 0.7371967920461616 0.3972660000000000 0.2
227 1 1.1075303281320599 1.6688148923449018 5.0877000256739349 0.4406405000000000 0.2
228 1 4.9555039339604052 3.2950457467205965 1.9383647079585127 0.4212955000000000 0.2
229 1 5.1074487143342493 6.4850147364876021 8.0001720997912908 0.4342980000000000 0.2
230 1 5.8906859144376567 0.4434955172168358 9.4057343562364935 0.4468830000000000 0.2
231 1 1.8722697915031223 5.1851907276200322 3.0449385628793726 0.5014150000000001 0.2
232 1 0.9365273535266166 1.8465660960344550 4.0839932366204108 0.3919050000000000 0.2
233 1 8.3415259323303399 4.9974999588835995 4.5528549625703771 0.4279395000000000 0.2
234 1 4.0428887669727755 7.5561626423453925 0.3042188811616688 0.5157200000000000 0.2
235 1 2.5311734630495137 6.6267983838849984 2.4461604431414563 0.6631050000000001 0.2
236 1 4.3287824992429629 9.4234113967123374 1.9963278662257495 0.4266340000000000 0.2
237 1 4.1446713445226209 5.2963640412738862 4.1177913344222450 0.4714780000000000 0.2
238 1 1.0266656753607439 5.7000715990489477 2.9983957759673472 0.4133880000000000 0.2
239 1 1.0559488910520081 8.3245652947762423 8.9269887928104783 0.3964360000000000 0.2
240 1 3.9082434789581115 4.7481974923945627 5.2038336113671226 0.4584380000000000 0.2
241 1 7.2489612099251817 4.2337488452491661 0.2593569618344732 0.5325600000000000 0.2
242 1 7.2878631582396949 3.2012193264129594 0.8378279317835449 0.6176450000000000 0.2
243 1 0.8931413366864456 8.6462700610635537 3.9666835222037502 0.5469750000000000 0.2
244 1 7.4857525470377917 9.2466123236704032 7.1018738905600500 0.5109900000000001 0.2
245 1 0.0576853068228317 2.8835667878015014 7.1615028583286291 0.5107750000000000 0.2
246 1 5.4975481176425287 9.2545175335257195 -0.0007363352981264 0.4332370000000000 0.2
247 1 4.0480776565272887 9.2538840623559455 5.5686662866451062 0.6751100000000000 0.2
248 1 2.1694168631904858 0.9135045293597108 0.7738971857793947 0.6194900000000000 0.2
249 1 5.7651617456528870 6.5386418525624377 9.5842410828982096 0.7410700000000000 0.2
250 1 4.6555321339538960 5.9060561425003453 4.5979709080282030 0.4341765000000000 0.2
251 1 6.8587141455509872 0.5309816901175950 2.6655043685488247 0.6040600000000000 0.2
252 1 5.4405114844329967 5.9527882978885236 4.8745632886698926 0.3793940000000000 0.2
253 1 8.7018028904023144 5.9766440735866313 5.9970696646243953 0.3802975000000000 0.2
254 1 4.1494718985015391 9.1609898119590465 7.4721541087590548 0.4100760000000000 0.2
255 1 4.2544998894513490 9.1864397723190550 2.9976651691424347 0.4402720000000000 0.2
256 1 7.3035983677519436 6.4060029450871561 3.0233217424882670 0.4410130000000000 0.2
257 1 7.1937694591961510 8.1470554652101530 0.2332487163392996 0.7601800000000000 0.2
258 1 5.0067770959011089 2.7397728802757486 4.8483299608339303 0.3783790000000000 0.2
259 1 3.4410251096532209 6.8918485513956727 9.6057618285702286 0.4401500000000000 0.2
260 1 2.2337155474109922 3.6896551860472537 9.1703513749161534 0.3768320000000000 0.2
261 1 3.2713980729648382 1.0828449376912923 3.0022251789616443 0.6957000000000000 0.2
262 1 3.8818018251556321 7.1265627496631128 1.3904584994514924 0.4153870000000000 0.2
263 1 1.6544730884705465 7.3828172564867911 7.8554540710645631 0.4527635000000000 0.2
264 1 5.8512883543059981 0.4614607865182815 2.8430761716492388 0.4206925000000000 0.2
265 1 5.8310268975911770 2.9338292288417178 0.8523829377165455 0.3970845000000000 0.2
266 1 3.2466227125087621 0.9504136145911525 7.3724813186886875 0.4751475000000000 0.2
267 1 9.6511125978535919 0.5818310740524414 5.1099457721959860 0.3903970000000000 0.2
268 1 1.6828191490730398 1.5535862481191223 8.3546820757058704 0.4143280000000000 0.2
269 1 1.9756554584535284 2.1084382160967046 5.1461886272089004 0.4273745000000000 0.2
270 1 0.0715426070758746 5.6417949983795195 3.1323706152842479 0.5472300000000000 0.2
271 1 2.5157628386933735 3.1460246113823316 1.8418879673108985 0.4104315000000000 0.2
272 1 3.2801159290080153 0.3833657222647089 5.8443498269687613 0.3758865000000000 0.2
273 1 7.2316712789857522 2.8590094994314783 4.6221498444990408 0.3890110000000000 0.2
274 1 2.2663992128516539 8.8033800640830364 8.4840579524246493 0.4250455000000000 0.2
275 1 1.2350670753612760 5.5716960474934680 0.0983157822807682 0.4657100000000000 0.2
276 1 4.7024392154392647 5.9017159556646028 3.0557556966448001 0.4011220000000000 0.2
277 1 9.1320247063292292 8.2720081301189765 6.5824816260293240 0.5204299999999999 0.2
278 1 6.6448363635776060 9.3867871799219049 5.6003283407647109 0.4771200000000000 0.2
279 1 8.5092086130116744 0.7519025524636076 2.3661695964616509 0.5194950000000000 0.2
280 1 1.9838889959406110 2.8508299156264476 6.6685684798694771 0.7186650000000000 0.2
281 1 0.0446314858066419 8.6151657256730587 2.4553723537341119 0.4075430000000000 0.2
282 1 9.5204883233150035 4.9890622095033441 9.5160709176423950 0.4294830000000000 0.2
283 1 5.5187987468804627 4.7549816929392090 0.4934100255689080 0.3975925000000000 0.2
284 1 8.1101719507376355 7.3680358528753604 7.7473305307320270 0.4683260000000000 0.2
285 1 2.3870719079225626 5.7647169901921975 1.4765146078640490 0.6296650000000000 0.2
286 1 5.6356757152410273 1.3026629477105485 5.5833349684377866 0.5677900000000000 0.2
287 1 3.4842286141367249 5.4901642083918629 1.2447778069246647 0.5117850000000000 0.2
288 1 2.1269013523395248 4.5926085769013705 0.9358195094566456 0.6814950000000000 0.2
289 1 4.1754488528760509 8.5239148853472120 4.8395042952459191 0.3640450000000000 0.2
290 1 1.0388782137294992 3.1044596808735192 5.9701675276598962 0.4832135000000000 0.2
291 1 2.1521359096979147 9.0709384558453880 7.6142438016444780 0.4310715000000000 0.2
292 1 5.3612988420207373 2.9536575002171772 4.2102800904821489 0.3779315000000000 0.2
293 1 6.0845121800589741 7.6194512720761027 0.2498751474934925 0.4235115000000000 0.2
294 1 7.9927256101554613 4.3014287456795763 4.2334643386393944 0.3827835000000000 0.2
295 1 1.7683733489881377 0.7099472661538099 3.5466433338356267 0.3668520000000000 0.2
296 1 1.7688384235902683 1.0064481043056939 1.7881776820064474 0.4482195000000000 0.2
297 1 4.6735789859454631 3.8367151903077059 6.9079619819556717 0.4467520000000000 0.2
298 1 9.0121406489825198 3.9971861255423060 4.4398396980974040 0.4643865000000000 0.2
299 1 0.8749599382604016 5.0387760846341099 2.3795253871500877 0.5043250000000000 0.2
300 1 8.8632917839745691 7.9149564748759760 1.0340517453007407 0.3650950000000000 0.2
301 1 9.3076909550801172 2.6274052220743020 5.8874747681539592 0.4631000000000000 0.2
302 1 0.8211131846819145 4.7832407832817605 3.4865476079323665 0.6255800000000000 0.2
303 1 0.5489801876812029 7.8631688666797919 2.4633533425806542 0.4898265000000000 0.2
304 1 4.2002957743169809 7.2689171347787189 3.7801151704130396 0.5391899999999999 0.2
305 1 1.1447426042863869 8.6488001366126976 6.9491674691388559 0.5052550000000000 0.2
306 1 2.0854799799879071 2.5077072084100993 2.1370847795095602 0.4064860000000000 0.2
307 1 2.8833152233263943 2.5551182665384191 7.3881615015910818 0.4591620000000000 0.2
308 1 4.4533900588480462 1.9563094174041447 0.1429177174649496 0.5725300000000000 0.2
309 1 3.3117702499447268 5.3748821986715081 5.5922395309172046 0.3806120000000000 0.2
310 1 1.9493627726111653 8.7383035369694753 3.5615115870973924 0.5794000000000000 0.2
311 1 9.2788520525091158 0.8383218515820607 1.8726289441841626 0.3863345000000000 0.2
312 1 8.0291944372279023 0.5351586007388661 5.7965222234615021 0.4145930000000000 0.2
313 1 7.9103305891611546 1.2823347011402761 7.7554919740481782 0.5772150000000000 0.2
314 1 3.8293378745798523 3.5282512788580402 6.1827328016938647 0.6779450000000000 0.2
315 1 5.8913974234282653 3.8524282350284182 5.3651528277718930 0.4881620000000000 0.2
316 1 6.3084879540066039 8.0550336329180734 5.1106004951456585 0.7145100000000000 0.2
317 1 2.0828893238644239 8.8190534615073055 0.9015855322244491 0.4682660000000000 0.2
318 1 8.4909248855188881 7.4762073126814821 6.8288990286761369 0.5303150000000000 0.2
319 1 7.1756187910891533 2.2077182948707730 1.8122868410287509 0.7761400000000001 0.2
320 1 2.5521220012457762 0.4990004404286071 6.4986834374767408 0.6062400000000000 0.2
321 1 3.7560540510668563 6.5923904723170503 6.9469152418857716 0.3753820000000000 0.2
322 1 7.5776947696605106 9.3593452284060632 6.0318220783365009 0.5272950000000000 0.2
323 1 8.6334481872386029 1.1965416465909264 6.6896569543587852 0.7030050000000000 0.2
324 1 3.7602527869326017 2.2648765672959903 2.4964079877649556 0.5419200000000000 0.2
325 1 3.5184897114144853 7.9733025837824680 4.3108151955096607 0.5675249999999999 0.2
326 1 1.0989308269201086 7.0272932336473852 5.3843759374626412 0.4247185000000000 0.2
327 1 2.8008152263929356 0.9645135084931146 1.8037872617001971 0.5043700000000000 0.2
328 1 8.3034564868609362 3.8955392223682059 1.9567607644547320 0.3649925000000000 0.2
329 1 6.0053235580946600 0.4558765298546845 1.7678872827610606 0.6354100000000000 0.2
330 1 3.9228488534060575 8.7284658011354121 2.3157622366406323 0.4381000000000000 0.2
331 1 0.2205372546860951 0.4887033835724543 6.1991261863834852 0.6961050000000000 0.2
332 1 3.5178846273202451 1.3630034893023737 6.2763636262725297 0.7026900000000000 0.2
333 1 7.8195021485422904 8.9153337573612301 8.9034548087688918 0.5592650000000000 0.2
334 1 5.9453939650269740 1.6480075490320985 6.4934953248816001 0.4512590000000000 0.2
335 1 1.0219229431687298 8.8509869495624969 2.7741936264308436 0.6422000000000000 0.2
336 1 9.3175384465498485 7.6584216689308322 8.5558758738383887 0.3773650000000000 0.2
337 1 5.2233546835634224 7.5221504560831169 3.9370571439302608 0.4981090000000000 0.2
338 1 5.5354753439009015 2.7970215457706118 7.2116565253467373 0.4054400000000000 0.2
339 1 2.9063586839384548 2.3565283456059576 9.4200825598654472 0.4034610000000000 0.2
340 1 5.8924404888290800 9.6253660802188694 7.8505324665010239 0.4980320000000000 0.2
341 1 9.1866666740652150 9.5653067532305904 0.2383299909406184 0.3660605000000000 0.2
342 1 3.2225557615000926 0.2113340425769046 4.9815618607399266 0.5017350000000000 0.2
343 1 6.6311174706737450 3.4897755509031492 3.3583873895201743 0.5283350000000000 0.2
344 1 2.9405973531083021 4.0581017614543784 0.0900944285548338 0.5928300000000000 0.2
345 1 9.0705422514722489 3.0533455244994916 4.2016721640451271 0.5066750000000000 0.2
346 1 3.4969658017095511 5.4347363031994034 4.8537829098566307 0.3775205000000000 0.2
347 1 0.2750854933936818 3.1362754214898567 5.3976343463493865 0.4711355000000000 0.2