ITEM: TIMESTEP
6
ITEM: NUMBER OF ATOMS
1000
ITEM: BOX BOUNDS pp pp pp
0 9.62113
0 9.62113
0 9.62113
ITEM: ATOMS id type x y z radius Transparency
0 1 0.5840109557599285 3.1847754387946412 7.9011510050338094 0.4358495000000000 0.2
1 1 4.9990858439860366 1.0464794087330098 3.1034264053514748 0.5124900000000000 0.2
2 1 7.9653160278148780 2.9819381830333271 8.0486953733074298 0.4162825000000000 0.2
3 1 1.2272904796293664 5.4354812494589542 6.0217662594205654 0.5000000000000000 0.2
4 1 5.6431271735913082 8.9182849515148384 1.7309473771196626 0.5380900000000000 0.2
5 1 3.7464771651632862 0.2506241108553521 7.8353081622055614 0.5163150000000000 0.2
6 1 8.2367507623838776 3.0684727263722142 0.5377034934393289 0.3666925000000000 0.2
7 1 8.8257054571987901 0.5828356899633821 5.8293379804737695 0.3766435000000000 0.2
8 1 5.1767571194401185 9.5261994705517967 3.7142953832078063 0.7919650000000000 0.2
9 1 0.8531793482143115 1.4910923112242827 6.1338899940469389 0.4401755000000000 0.2
10 1 0.7934217561226899 5.9815427144245463 4.0278956778632713 0.6164200000000000 0.2
11 1 4.7744363506041649 6.9889621561668065 0.7327516887737717 0.4648655000000000 0.2
12 1 9.0815957028209766 7.8766885768159991 7.6820299549119770 0.5510300000000000 0.2
13 1 7.8515575087354028 6.5730863477365045 8.5915618712578254 0.7180050000000000 0.2
14 1 6.6669055619370798 5.7948234891550916 1.8580826887807076 0.4623000000000000 0.2
15 1 8.5437064729217127 1.2953891945359666 3.4357986412644355 0.6967300000000000 0.2
16 1 5.9680125569838474 7.7458498765916248 8.8321521705098824 0.6073950000000000 0.2
17 1 7.2468322859861880 7.7632684597170414 3.8512780886097313 0.3707300000000000 0.2
18 1 4.4200143194965094 8.4315916768297967 0.5188546956043045 0.4403200000000000 0.2
19 1 7.7034581444545243 7.6511885789162450 2.0166566141237583 0.3662995000000000 0.2
20 1 3.5165753127403652 3.2705266822060071 3.4051955996892507 0.7897999999999999 0.2
21 1 7.0545759869524032 1.2317151522806158 6.8615022064321023 0.6512000000000000 0.2
22 1 8.9264765169003226 6.6451254468172261 6.2138153629021371 0.3904030000000000 0.2
23 1 6.7065634639133282 7.4707511054637417 4.2700296153388031 0.3714140000000000 0.2
24 1 4.0692973684355582 6.4337554308721714 9.4482124396698595 0.3616105000000000 0.2
25 1 4.7953970960403662 2.9674315338288344 0.4557086222880973 0.5147250000000000 0.2
26 1 3.1048942443729959 3.7808162408674919 4.8341361264787936 0.7802550000000000 0.2
27 1 4.5410517980949896 7.9967785963577436 6.4149231412479288 0.4616785000000000 0.2
28 1 0.3067072343887322 2.1219004863662465 2.6317997338822616 0.4039595000000000 0.2
29 1 7.6888607777842033 4.1027481021308851 7.9208214566662596 0.7415450000000000 0.2
30 1 5.0965901567723391 7.7098874463041485 0.0316359846047841 0.5892150000000000 0.2
31 1 2.2162249581867215 7.8691695769482566 2.6834864567042240 0.6583500000000000 0.2
32 1 8.4378010158220071 1.4869672945622874 1.3034729195594383 0.7759100000000000 0.2
33 1 1.5044945723416210 1.5975098234645482 7.4837266584312845 0.4519360000000000 0.2
34 1 7.8786281475111322 1.9656644747392615 6.9893370553021610 0.3747375000000000 0.2
35 1 7.4927730757034059 8.8821425161127667 7.9124704532852999 0.4120415000000000 0.2
36 1 7.8777423891341503 8.9920684919480056 4.3406936947073538 0.5750800000000000 0.2
37 1 1.1368342711745887 0.4562196276025626 1.3854717051530190 0.5162500000000000 0.2
38 1 4.8223801379069791 0.4379867879874207 4.9466252974367499 0.5941850000000000 0.2
39 1 3.1823638378370220 4.4027946053474487 6.9208254938070546 0.6515550000000000 0.2
40 1 2.1097478237522154 0.7546921248593735 7.7805062523666066 0.6209500000000000 0.2
41 1 0.5183022112473398 4.4695354707753268 8.1351741894278451 0.4182075000000000 0.2
42 1 8.7399089762304243 5.0924489931967081 9.0306407259226535 0.4843040000000000 0.2
43 1 0.0677799117388180 8.9916062994371959 7.4378061997042266 0.7351350000000000 0.2
44 1 2.5694880863708467 6.6103677680232309 3.5400522584195029 0.3681760000000000 0.2
45 1 9.5953517245491220 5.5662922865409605 1.4409675860366433 0.4605120000000000 0.2
46 1 5.2740628092404949 7.7608094352543144 1.7819260494128835 0.5314000000000000 0.2
47 1 6.6357941808363741 3.5353592758330796 0.1221013956166292 0.3917005000000000 0.2
48 1 9.0855354133831110 3.2883776872587616 5.1157168557846617 0.3983635000000000 0.2
49 1 9.5015069867638555 5.6856081870497457 8.9243905877566743 0.4824545000000000 0.2
50 1 2.9444546403141225 8.9600482341860115 0.6008113163415525 0.4489110000000000 0.2
51 1 1.8343226517111892 1.3617006893805546 4.2912362121045824 0.6179400000000000 0.2
52 1 0.8826510817390376 6.5016625981743701 1.4265479194003727 0.3742770000000000 0.2
53 1 9.1971386597131186 7.3413553785707588 4.6564673464864450 0.6348300000000000 0.2
54 1 3.3803276439125685 6.0748503099739040 9.3326446795948854 0.4236810000000000 0.2
55 1 1.1322590887768045 5.4571995215830285 1.2546535037025919 0.6781700000000001 0.2
56 1 5.1287494858578366 9.4628724647252032 5.6997735912220699 0.3870130000000000 0.2
57 1 3.2362704673745992 4.9625371034553050 8.8157426897117084 0.6346650000000000 0.2
58 1 0.6262442659860512 6.3885530100354790 3.1201048906214202 0.3912565000000000 0.2
59 1 3.7949149543319152 3.3379319656067286 7.6141741409929171 0.7547750000000000 0.2
60 1 6.8772867214373266 5.0455814563291073 5.7959009188757120 0.3948225000000000 0.2
61 1 6.7147157196168088 4.1786773639718451 2.5966774287901759 0.4921890000000000 0.2
62 1 6.0021976705341666 5.5858739539350371 5.4647659377138229 0.4629365000000000 0.2
63 1 6.8318136060444496 0.8947370761246914 8.7535082381986911 0.3616485000000000 0.2
64 1 9.2519006917332014 8.1603745830678829 0.3014762882121046 0.4217555000000000 0.2
65 1 6.9626586190772768 2.9741077162198488 8.0512193678043840 0.5792300000000000 0.2
66 1 3.7531357203368985 4.7731769959922570 3.3083592487097611 0.4498485000000000 0.2
67 1 3.8281915785129321 7.0817107711906395 7.5077612581880784 0.4212635000000000 0.2
68 1 4.5352029708244501 1.3551375516383466 0.9638500155766705 0.4587420000000000 0.2
69 1 4.4371090151247374 8.3557567999455742 3.6963741226775668 0.5822300000000000 0.2
70 1 7.4317010881485803 4.6676436712204072 2.8302798258821023 0.4044480000000000 0.2
71 1 9.3948516783146143 1.5981208141990420 8.1997264826340519 0.3764255000000000 0.2
72 1 8.5440387142448131 2.7997487630928251 8.5874257869852766 0.3927705000000000 0.2
73 1 7.1124452660986188 6.2115995352026250 6.8164351044031797 0.5562500000000000 0.2
74 1 0.0571404137317047 0.7259375131686856 0.8175970965512520 0.7324700000000000 0.2
75 1 2.1725651756687605 1.2788699631551879 3.2958228310173867 0.4321290000000000 0.2
76 1 2.7594351486180138 5.4842257172999105 3.8921272589947566 0.7884350000000000 0.2
77 1 6.2777171462893957 4.2885265361299938 0.6390223973683318 0.4313700000000000 0.2
78 1 8.8810374382567385 5.8780494138879513 0.3432283754531707 0.7426700000000001 0.2
79 1 1.2575801440246130 9.4922058331406287 7.5344450430614973 0.5587299999999999 0.2
80 1 9.2311823236106321 8.7344569565086925 4.3132603197585473 0.7997950000000000 0.2
81 1 2.9699135223935857 8.4931608643312941 2.0467610160191176 0.4579850000000000 0.2
82 1 8.6105099818742712 0.4497404691764751 4.7455443169358080 0.7346549999999999 0.2
83 1 2.4137126713686188 0.4349826327529118 5.3861277023163989 0.4215560000000000 0.2
84 1 0.8826094532429285 6.8288403971287472 7.7440910181470883 0.4607780000000000 0.2
85 1 1.5360704545066497 4.2455673291302327 2.7558857246129436 0.4999980000000000 0.2
86 1 2.9316089110993508 2.6724759443016688 5.1385714495137567 0.3806465000000000 0.2
87 1 2.0764805566477929 2.3038923917325373 7.7834114092648807 0.4997205000000000 0.2
88 1 1.0222085002624419 9.4509039981402090 6.5636967032084605 0.4046105000000000 0.2
89 1 5.3250736188797294 7.3247125868016330 4.9811810663762719 0.5063350000000000 0.2
90 1 8.4072730601385928 8.8785090077215720 0.6388681120210017 0.7369250000000001 0.2
91 1 2.5060176108375174 3.4545244284838641 7.6198429312284643 0.5393500000000000 0.2
92 1 2.6083948170318134 4.5517571955363643 7.9349365163295520 0.5210050000000001 0.2
93 1 3.4895155307784029 4.8137290867743614 4.4954846453141366 0.3715265000000000 0.2
94 1 8.3045338328963751 6.8548320810986398 9.7085031989007238 0.4147785000000000 0.2
95 1 5.2044694248071659 5.3467699017754873 9.3367425542309519 0.5593250000000000 0.2
96 1 1.5638071815294670 0.9605657616511148 2.7512272200406422 0.4392310000000000 0.2
97 1 0.3015036984399095 5.1799554724074417 6.2768254262791947 0.4929155000000000 0.2
98 1 2.7616665597043339 2.2279158753416906 3.0015859210255065 0.5589350000000000 0.2
99 1 0.2716210014088475 2.3181464338570539 8.0897048568031575 0.5029200000000000 0.2
100 1 1.3998045295604702 2.1719872709150261 3.0631779527939971 0.7714299999999999 0.2
101 1 7.6500912172267901 3.2623530684411213 9.1464254195390797 0.7448150000000000 0.2
102 1 8.7394940936856891 2.2681914593691475 7.6255582089112410 0.7168150000000000 0.2
103 1 5.8375718219213528 3.5165045096906522 0.2145395640950264 0.4075345000000000 0.2
104 1 0.7069391807229674 6.0482829373702733 9.0203243416252707 0.4109360000000000 0.2
105 1 6.2379756841740246 8.7885084150692325 4.1420101085888286 0.4319070000000000 0.2
106 1 3.5477050979679743 1.6348864601423949 9.0549920799798311 0.6148200000000000 0.2
107 1 1.6658294176886643 0.1404456151109559 5.8673628281677228 0.5135600000000000 0.2
108 1 9.4330483250196142 0.5681348568144405 3.8151885694738348 0.5124750000000000 0.2
109 1 6.8276808196262104 7.5596461003572717 7.2344075542924990 0.4586710000000000 0.2
110 1 2.5850861246891448 2.1645643554758225 5.8000317012942038 0.5212350000000000 0.2
111 1 9.4034112531273415 9.2637721152225456 1.0507565583160146 0.4070420000000000 0.2
112 1 8.7333892898080432 0.1205293201695164 1.5148804251067876 0.5330650000000000 0.2
113 1 7.1076120986843572 0.6294876184280356 5.8949677947693599 0.4884800000000000 0.2
114 1 8.1843558668751228 1.8848505496524852 2.4745082282956763 0.4865350000000000 0.2
115 1 7.5901569831430198 1.0984259672222432 2.1627400259986089 0.4578045000000000 0.2
116 1 6.1873971279367899 8.2333947363072202 2.3695904184494969 0.3993510000000000 0.2
117 1 5.4141000926332712 6.6117352060839201 4.2698373903366491 0.4889610000000000 0.2
118 1 6.5140457254640278 5.9032364820209482 0.9418247879075052 0.4600195000000000 0.2
119 1 3.7890865910223344 8.8736770090070802 1.2585044973858375 0.6193600000000000 0.2
120 1 4.1185359347920478 5.4310328180728265 9.4205107723044801 0.5329250000000000 0.2
121 1 0.5132535928821526 9.5468194508361055 3.9958188228192073 0.4515735000000000 0.2
122 1 5.6817804042062567 1.9923552912614291 4.4911283258296759 0.6554050000000000 0.2
123 1 1.9826794077845025 4.7312208811491541 9.2066932286407859 0.6981200000000000 0.2
124 1 1.6106714372571764 5.1907926248098049 6.8892219969731698 0.3930615000000000 0.2
125 1 4.2157999911201003 6.3761707821437641 5.0607124595391939 0.3694375000000000 0.2
126 1 6.0836898629908704 3.9730487460780064 7.2658169467119320 0.3683290000000000 0.2
127 1 4.6625735937404951 6.1062787254710109 0.3486506466286800 0.4933850000000000 0.2
128 1 5.2571571631441616 2.5526511220485024 7.9151143023289592 0.4001935000000000 0.2
129 1 6.7293809082936518 6.9555148775474942 0.8201811578422812 0.6196250000000000 0.2
130 1 7.8971014689913019 6.7155567862518639 2.5791018583345573 0.3728560000000000 0.2
131 1 6.4944000484714772 0.6474042039822623 4.9341448406593322 0.6510100000000000 0.2
132 1 1.2776872130026973 2.5225113920503448 0.6081190830883907 0.4206400000000000 0.2
133 1 7.3449729991302242 7.5289442193469229 1.3682235692151468 0.3834890000000000 0.2
134 1 0.8844963516514812 6.0481296837204530 5.2012629350489679 0.5621200000000000 0.2
135 1 1.5316469950281941 1.7299619966744009 1.9449974119744999 0.3754805000000000 0.2
136 1 9.2762480422529006 9.3236993355534850 5.4721172501596751 0.5002350000000000 0.2
137 1 4.9621627552241954 6.5141807598378456 5.0881675606172543 0.3880280000000000 0.2
138 1 4.4948249731371925 4.9407728215064965 0.8769785355211105 0.7032150000000000 0.2
139 1 6.5264566605490373 7.1240321803457070 6.1814297570301866 0.6983700000000000 0.2
140 1 6.6451505677023439 6.8357386459899088 8.3609644702641113 0.4542710000000000 0.2
141 1 8.5003219307843914 0.4596768480337444 0.6141593126471163 0.4566025000000000 0.2
142 1 6.2067416719292687 2.6964863306678346 2.2399164992696630 0.3743885000000000 0.2
143 1 2.3064276385889730 1.1068842077294656 8.8071486369959509 0.4806770000000000 0.2
144 1 6.3460425849625048 2.8328145351792045 4.0939327149760034 0.4859215000000000 0.2
145 1 0.0620097124105019 1.7779958902484350 1.4023584944853262 0.4706720000000000 0.2
146 1 2.9358086026134154 3.7383713731382811 1.3044518232214009 0.5096900000000000 0.2
147 1 6.5608410633945438 8.6974358925435400 7.5221914603460158 0.6143800000000000 0.2
148 1 5.1658388433487303 -0.0099082582504194 2.3753940078760389 0.5011050000000000 0.2
149 1 9.5268063353684305 6.6128929947729427 1.4230568728566877 0.5804450000000000 0.2
150 1 4.7484856095952273 9.0059620694326394 4.7460907331038538 0.3770395000000000 0.2
151 1 3.8554205946243805 2.9944138190081100 9.1039249192551566 0.7732599999999999 0.2
152 1 6.7451452439521100 0.5091150398400559 9.4406361803630343 0.4307570000000000 0.2
153 1 7.7340485804673911 0.2004945031827088 2.3406278714149855 0.3905040000000000 0.2
154 1 0.2308370716132587 9.5789138914401715 1.9933703536566445 0.6826100000000001 0.2
155 1 2.5627724112202852 5.4321567975381706 7.2684107705389289 0.5766050000000000 0.2
156 1 9.4159557273825332 0.7377868607585357 2.7971023950276290 0.5191050000000000 0.2
157 1 2.5607401211313743 2.5033877919603613 1.3033653492187767 0.4106890000000000 0.2
158 1 5.7573620493834232 6.8293472210714823 8.4427265027195233 0.4093745000000000 0.2
159 1 9.4319198118962682 5.2468654954544283 7.1115241472615258 0.4335330000000000 0.2
160 1 6.8060320649553434 8.4514857595023987 6.2954976419244177 0.6605200000000000 0.2
161 1 0.2908632869441426 2.7503729402316925 8.9074188003162824 0.4215420000000000 0.2
162 1 7.5191206949314804 6.8192738112979043 3.9316149436294250 0.6129550000000000 0.2
163 1 7.6215595610966744 4.4124700644877572 1.9814445562698118 0.4975395000000000 0.2
164 1 3.9374215196056985 3.7157702062405118 0.5946657406300676 0.5540900000000000 0.2
165 1 5.4072602476640217 2.5521924759553731 2.0677181510039890 0.4538265000000000 0.2
166 1 4.2881677305103745 5.9404089484978195 6.7090972519228460 0.4059420000000000 0.2
167 1 6.0613897740176519 2.5551122928110654 7.8824201236820031 0.4023925000000000 0.2
168 1 3.2935762720166744 7.5225821487395237 8.0983839187184756 0.4874140000000000 0.2
169 1 8.4106558052884122 3.4429478520383130 2.6506217886720043 0.3875285000000000 0.2
170 1 2.6916226172739397 9.0303612632650232 4.4183704419573759 0.6087600000000000 0.2
171 1 6.4949142752150149 3.9558213301750560 8.0257801500722934 0.4647605000000000 0.2
172 1 3.1853939223893168 5.8755055363805235 2.8672257803407883 0.3842370000000000 0.2
173 1 4.1473495812115075 0.6744793034012115 3.6494460972510341 0.4935495000000000 0.2
174 1 6.9842671789981630 0.3872597899933042 7.8710661867324809 0.6664150000000000 0.2
175 1 3.9234042132672071 8.0321751969719539 8.5389243556744798 0.4035855000000000 0.2
176 1 7.4147985491290189 7.6394040918637778 6.4915457056139552 0.3725095000000000 0.2
177 1 4.1641711812179878 1.0332329671120608 7.1482421971470380 0.4475955000000000 0.2
178 1 5.8974843742156127 0.7342819048172785 0.6662460401495399 0.4688440000000000 0.2
179 1 0.4212444491886795 2.2738438828713834 0.7938449350384527 0.3881465000000000 0.2
180 1 3.2988221183591446 0.5748768152047752 4.0900713125554136 0.4656750000000000 0.2
181 1 0.1494628377410512 7.7618943107133909 6.0965278767784179 0.3877605000000000 0.2
182 1 2.2728277453155368 8.0255530120090111 6.9323729743221758 0.7812600000000000 0.2
183 1 7.7361381482886342 5.2133620453931488 3.2939100297926367 0.3735800000000000 0.2
184 1 3.7456636363988078 6.9824067359890041 4.6636759228269886 0.4885015000000000 0.2
185 1 4.9053158839398563 4.0655261151883817 9.4039770867705723 0.7562449999999999 0.2
186 1 0.1501478712909381 4.1831705066039291 -0.0491560126984558 0.3917555000000000 0.2
187 1 0.1201924238284228 6.8738398564061907 5.6616775590374306 0.5989550000000000 0.2
188 1 1.8503577876748025 4.9180144097420744 2.0447295440370850 0.5107000000000000 0.2
189 1 8.9021535138644161 5.6656729832180694 4.6364408007819016 0.4564810000000000 0.2
190 1 4.7962774781744688 3.3419289033555453 3.8737790476170013 0.3762735000000000 0.2
191 1 8.6469553281261948 4.7427788489268066 1.3135513848195215 0.7685900000000000 0.2
192 1 3.1803240264903669 5.1245705246897497 2.8302773147339546 0.3672850000000000 0.2
193 1 0.7697063400351264 9.1924507430468338 0.7941177046143099 0.6089250000000000 0.2
194 1 8.3913483453586295 8.0195630193329972 5.1098590946492051 0.4995680000000000 0.2
195 1 7.5022249300617423 9.1504455742480886 3.0344790516663380 0.6020400000000000 0.2
196 1 9.2084580046731599 1.6312438644143941 2.3233742595969806 0.5104050000000000 0.2
197 1 8.3570918680021649 2.7819926701150366 1.9628291891043812 0.5590000000000001 0.2
198 1 6.1153285192485702 1.5821709033459277 1.2266014589335350 0.5690250000000000 0.2
199 1 4.2728235220698902 0.4397372102740555 2.6596179598979419 0.5291500000000000 0.2
200 1 7.4888265827101543 0.3445681843988529 1.2767946939341701 0.7091850000000000 0.2
201 1 9.2902901598586798 2.2397710734302598 6.6581786080544996 0.3922940000000000 0.2
202 1 3.4370226648467899 7.6881304899664613 9.1607781591328656 0.4542570000000000 0.2
203 1 8.1043121302697667 6.2359084965727831 3.2611831770319792 0.4367300000000000 0.2
204 1 5.1830787628917552 1.7313363614917445 9.2225237224867858 0.3620035000000000 0.2
205 1 7.6328900740612662 2.2125494593687884 6.2347527517805474 0.4203840000000000 0.2
206 1 6.4396500186919132 5.9658033688544032 4.4396768581894692 0.7108950000000001 0.2
207 1 9.1652340695266972 8.7557467236547772 8.8613264130972151 0.7976950000000000 0.2
208 1 6.7573548222743334 3.8541455113226988 4.5338306403963262 0.6991350000000000 0.2
209 1 2.1633355146192290 8.3055509642289671 1.6636151120468652 0.4522140000000000 0.2
210 1 5.8627655919148660 5.7593711325817480 8.3882316773733834 0.6662150000000000 0.2
211 1 8.5831487604868819 1.1774522877326794 8.7569138505660238 0.6427600000000000 0.2
212 1 6.0553203299570706 6.6635978309846244 7.3998260129346640 0.6864050000000000 0.2
213 1 9.3935290561017979 5.8758254594368644 3.9963843017453238 0.3643480000000000 0.2
214 1 5.1000341633643806 1.0369855653362734 7.0682900251124741 0.3931265000000000 0.2
215 1 2.1305424062936029 2.1010734073658663 0.6017208109086833 0.4988025000000000 0.2
216 1 3.2666223895512281 9.4556522372546254 8.7301732147786026 0.4258295000000000 0.2
217 1 0.8136993362191990 2.6528140234489594 1.7716444285690489 0.7249600000000000 0.2
218 1 2.4265786260098610 6.9547632735312623 8.8672427171761967 0.8004250000000001 0.2
219 1 3.7828251784504232 7.8753191876379631 5.5405596855437702 0.6742950000000000 0.2
220 1 3.6842098100838396 0.0984220675470808 6.7116377631480999 0.6171400000000000 0.2
221 1 3.1882572669489679 7.1000541228296452 7.0092735199130347 0.3789600000000000 0.2
222 1 6.4799277036961200 2.5500011022299751 4.9338157968864538 0.4103385000000000 0.2
223 1 2.7992556006073812 9.0241159886628228 1.4210694047590120 0.3791875000000000 0.2
224 1 2.5485086944290565 0.1349844171870740 3.4747656328413092 0.5900750000000000 0.2
225 1 2.5472943421005811 3.8298425146024981 6.0556982741143273 0.5634000000000000 0.2
226 1 0.3093251131516278 5.9983600813463580 0.7750955342538302 0.3972660000000000 0.2
227 1 1.1502998189279137 1.6351587031983299 5.0738891399084585 0.4406405000000000 0.2
228 1 4.9375093619380150 3.2799685143568280 1.9380134035268290 0.4212955000000000 0.2
229 1 5.1182943020145073 6.4713650008071513 7.9951769842982854 0.4342980000000000 0.2
230 1 5.8499114182138428 0.4178033932489673 9.4111646999505272 0.4468830000000000 0.2
231 1 1.8269130292515516 5.1684207582617123 3.0255037565697225 0.5014150000000001 0.2
232 1 0.9634131249611824 1.8335502099205296 4.0874438454632971 0.3919050000000000 0.2
233 1 8.3628290384706698 4.9619408064678439 4.5614083831811438 0.4279395000000000 0.2
234 1 4.0477527176580717 7.5365470739448694 0.3344430660675520 0.5157200000000000 0.2
235 1 2.5261821681765984 6.5989795474915640 2.4911390182935254 0.6631050000000001 0.2
236 1 4.3318516410242500 9.3671798773011581 2.0043472746789304 0.4266340000000000 0.2
237 1 4.0698404303138904 5.3284925800341183 4.0904373388240360 0.4714780000000000 0.2
238 1 0.9887850023106137 5.6474491162551450 3.0333536558323360 0.4133880000000000 0.2
239 1 1.0355037576480706 8.3140933892820961 8.9214475970285303 0.3964360000000000 0.2
240 1 3.9174092265976159 4.7373915345204036 5.2048581345950709 0.4584380000000000 0.2
241 1 7.2364245245107313 4.2280981336146501 0.2526735668903430 0.5325600000000000 0.2
242 1 7.2814639359022255 3.2004376660495524 0.8355873969000911 0.6176450000000000 0.2
243 1 0.8973419583035550 8.6259396754720576 3.9318271823052036 0.5469750000000000 0.2
244 1 7.5105847324367980 9.2402341570079720 7.0609243282543197 0.5109900000000001 0.2
245 1 0.0824961317445835 2.8723316795985023 7.1609945262898398 0.5107750000000000 0.2
246 1 5.4734671889241708 9.2328960600343208 0.0164934549772522 0.4332370000000000 0.2
247 1 4.0634707296985351 9.2294840150008781 5.5364657003689359 0.6751100000000000 0.2
248 1 2.1716524937852770 0.9087960782461558 0.7342729063748060 0.6194900000000000 0.2
249 1 5.7471935830926686 6.5323630787538081 9.5619750459905752 0.7410700000000000 0.2
250 1 4.6201167053518652 5.8647199658540536 4.5784703013135601 0.4341765000000000 0.2
251 1 6.8396892905510320 0.5000647472769049 2.6656024408728669 0.6040600000000000 0.2
252 1 5.4230313530696534 5.9518564443769426 4.8355350651909088 0.3793940000000000 0.2
253 1 8.7041935982234389 5.9317827174584741 5.9722030411345113 0.3802975000000000 0.2
254 1 4.1217461340152584 9.1178038634438927 7.4454660083921915 0.4100760000000000 0.2
255 1 4.2504050509161679 9.1481142434757086 2.9948952433273783 0.4402720000000000 0.2
256 1 7.2796510877970872 6.3865207156148625 2.9985908189232360 0.4410130000000000 0.2
257 1 7.1740954753161441 8.1338210751784725 0.2311727342992879 0.7601800000000000 0.2
258 1 5.0235094955439727 2.7229434940252313 4.8247291238159340 0.3783790000000000 0.2
259 1 3.4331661136104419 6.9012011394616843 9.5912344416487674 0.4401500000000000 0.2
260 1 2.2280225724824074 3.6852441070349542 9.1702558282646880 0.3768320000000000 0.2
261 1 3.2629009365678789 1.0780486965415745 2.9620235737294540 0.6957000000000000 0.2
262 1 3.9492880014626013 7.1426564484066617 1.2274166074738151 0.4153870000000000 0.2
263 1 1.6587375448547825 7.3696238529473854 7.8517072474842760 0.4527635000000000 0.2
264 1 5.8137476636732508 0.5066928803925265 2.8038292148530064 0.4206925000000000 0.2
265 1 5.7770593898042506 2.9569139875446013 0.7970581540055812 0.3970845000000000 0.2
266 1 3.2352343220356143 0.9636000455696736 7.3247020094534596 0.4751475000000000 0.2
267 1 9.6644764439914184 0.5558015357685556 5.1248974549299033 0.3903970000000000 0.2
268 1 1.7020870407425881 1.5637150157447912 8.3268703498319887 0.4143280000000000 0.2
269 1 1.8807557375379849 2.1030015591383071 5.1260761502686671 0.4273745000000000 0.2
270 1 0.0340493290708091 5.6607628435522468 3.1439348227817039 0.5472300000000000 0.2
271 1 2.4998286383752499 3.1318183317601700 1.8422368017015285 0.4104315000000000 0.2
272 1 3.2719089831122106 0.3675122381602778 5.8449000113129097 0.3758865000000000 0.2
273 1 7.2570395132700343 2.8360976297923748 4.6270831712697982 0.3890110000000000 0.2
274 1 2.2470112395588240 8.8269277799322623 8.4724016282743158 0.4250455000000000 0.2
275 1 1.2246908943612249 5.6227444627229541 0.1220718774682883 0.4657100000000000 0.2
276 1 4.6818462286842522 5.8764166807910554 3.0559947836612982 0.4011220000000000 0.2
277 1 9.1207771506815689 8.2494747282627490 6.5311608337036047 0.5204299999999999 0.2
278 1 6.6295079384774640 9.3523584636459027 5.5950840124066579 0.4771200000000000 0.2
279 1 8.4776625877569831 0.7252342527097873 2.3515743400435523 0.5194950000000000 0.2
280 1 1.9835713669287409 2.8412512087968680 6.6481679346377787 0.7186650000000000 0.2
281 1 0.0499113088647998 8.5928153431329459 2.4234674895125576 0.4075430000000000 0.2
282 1 9.5051252067162793 4.9751268463614826 9.5167123568093928 0.4294830000000000 0.2
283 1 5.5221029320938202 4.7499395841329992 0.4777322250484611 0.3975925000000000 0.2
284 1 8.1070866531907981 7.3726903114091726 7.7505731599693579 0.4683260000000000 0.2
285 1 2.3875670777825055 5.7582118510113771 1.4770208890044647 0.6296650000000000 0.2
286 1 5.6416264476745299 1.2689788861848379 5.5492423686006580 0.5677900000000000 0.2
287 1 3.4734963343745440 5.4784289767801884 1.2605396658078647 0.5117850000000000 0.2
288 1 2.1595293855628594 4.5714010727904020 0.9456571115689663 0.6814950000000000 0.2
289 1 4.1444647571482651 8.5060015959385264 4.7941302917577220 0.3640450000000000 0.2
290 1 1.0539041376567824 3.1091160907446311 5.9329483494899211 0.4832135000000000 0.2
291 1 2.1746335009616087 9.0812199864456282 7.5917474300826013 0.4310715000000000 0.2
292 1 5.3973646901430259 2.9454554030138951 4.2022073149724308 0.3779315000000000 0.2
293 1 6.0896162546765620 7.5992843555113820 0.2936763729604694 0.4235115000000000 0.2
294 1 7.9381532660458358 4.2531322475332383 4.2323916556066346 0.3827835000000000 0.2
295 1 1.7307141444208918 0.6332015376482341 3.4754152424720712 0.3668520000000000 0.2
296 1 1.8615798441246694 0.9736527566998187 1.7563838710547008 0.4482195000000000 0.2
297 1 4.6252203475123448 3.8501186416690185 6.8838386882757376 0.4467520000000000 0.2
298 1 9.0462997950905564 3.9888853119022571 4.4913735491360933 0.4643865000000000 0.2
299 1 0.8785560768495998 4.9983403964879471 2.3933214884461087 0.5043250000000000 0.2
300 1 8.8312901221062869 7.9541845389631787 1.0860515230250221 0.3650950000000000 0.2
301 1 9.2874991810712011 2.6342801355325980 5.8918572893194145 0.4631000000000000 0.2
302 1 0.7952526820857132 4.7496100680100994 3.5221260456705092 0.6255800000000000 0.2
303 1 0.5591803027675134 7.8535478568947115 2.4520000962052806 0.4898265000000000 0.2
304 1 4.2150439134094100 7.2597640439089401 3.7890031566425963 0.5391899999999999 0.2
305 1 1.1308699503898083 8.6185636337799192 6.9168011480886351 0.5052550000000000 0.2
306 1 2.0616503778393493 2.4808390408059862 2.0785297842448842 0.4064860000000000 0.2
307 1 2.8906361772548266 2.5718019577035718 7.3507112592474373 0.4591620000000000 0.2
308 1 4.4487796699657647 1.9736030920288863 0.1289671294409682 0.5725300000000000 0.2
309 1 3.4697154225039912 5.3494370217577965 5.5762064927738439 0.3806120000000000 0.2
310 1 1.9508569955488715 8.7201103904638124 3.5423194994900711 0.5794000000000000 0.2
311 1 9.2555561670675726 0.8427343672463754 1.8677342466202815 0.3863345000000000 0.2
312 1 8.0091839736888062 0.5058072454486418 5.7882186931238397 0.4145930000000000 0.2
313 1 7.9003638030317154 1.2883339710218558 7.7510485467596393 0.5772150000000000 0.2
314 1 3.8122579277086550 3.5414272177598960 6.1256437849272904 0.6779450000000000 0.2
315 1 5.8836271412916927 3.8870960456598551 5.3464023951317463 0.4881620000000000 0.2
316 1 6.2916530720308677 8.0648829264953275 5.0802710861953138 0.7145100000000000 0.2
317 1 2.0877909180432406 8.8499966021393313 0.9222128849367015 0.4682660000000000 0.2
318 1 8.4860891105678284 7.4659937686054318 6.8308495789863830 0.5303150000000000 0.2
319 1 7.1578540541547948 2.2080492886659604 1.8066223803202242 0.7761400000000001 0.2
320 1 2.5470588789283233 0.5025946797529951 6.5069908615263099 0.6062400000000000 0.2
321 1 3.7521391183168853 6.5660340649139091 6.8949017170052125 0.3753820000000000 0.2
322 1 7.5447859652285283 9.3424102895718306 6.0277601833092964 0.5272950000000000 0.2
323 1 8.6044199480848480 1.2064750075803370 6.6826330447341906 0.7030050000000000 0.2
324 1 3.7317036213557264 2.2628468419591172 2.4818556935048184 0.5419200000000000 0.2
325 1 3.5485368597167066 7.9654443647359043 4.3233281472469054 0.5675249999999999 0.2
326 1 1.1035264494855779 6.9910272715336363 5.3968125231952948 0.4247185000000000 0.2
327 1 2.8175757545125193 0.9628082353414601 1.7923686456378631 0.5043700000000000 0.2
328 1 8.2875354130848571 3.8631935469680552 1.9615511017223290 0.3649925000000000 0.2
329 1 5.9949489537123570 0.4840477953956282 1.7541927065550893 0.6354100000000000 0.2
330 1 3.9148249120300069 8.6700542110719958 2.3061962553837416 0.4381000000000000 0.2
331 1 0.2074317641800469 0.4791600605529026 6.1963818903298771 0.6961050000000000 0.2
332 1 3.5099540260178714 1.3518501683941631 6.2466364767750493 0.7026900000000000 0.2
333 1 7.8054614387219106 8.9263772276444282 8.8326793499320182 0.5592650000000000 0.2
334 1 5.9196738077812308 1.6545368934667115 6.4530753699076016 0.4512590000000000 0.2
335 1 1.0165563447900119 8.8417107145278351 2.7644089795730822 0.6422000000000000 0.2
336 1 9.3248493377613624 7.6326271887303569 8.5482555391469486 0.3773650000000000 0.2
337 1 5.2210212549546728 7.5206480527685073 3.9345126126890198 0.4981090000000000 0.2
338 1 5.4673484221592803 2.7483155501583867 7.1335657811044673 0.4054400000000000 0.2
339 1 2.9155377257121327 2.3538689782946931 9.4077027158690765 0.4034610000000000 0.2
340 1 5.8838392822834926 9.5910655262885047 7.8095607357964436 0.4980320000000000 0.2
341 1 9.1738475883502399 9.5597128568641647 0.2321377304719077 0.3660605000000000 0.2
342 1 3.2151270482646406 0.2105056502687914 4.9828880221249188 0.5017350000000000 0.2
343 1 6.6333585402196658 3.4821485640131025 3.3668713990690264 0.5283350000000000 0.2
344 1 2.9606598000520745 4.0497833747721224 0.0813432482828530 0.5928300000000000 0.2
345 1 9.0950291600878330 3.0512264609020625 4.2354781577757095 0.5066750000000000 0.2
346 1 3.4686239641528021 5.4844886491058542 4.8296316715372258 0.3775205000000000 0.2
347 1 0.2862443883216854 3.0987728801908756 5.3631187354307430 0.4711355000000000 0.2