ITEM: TIMESTEP
2
ITEM: NUMBER OF ATOMS
1000
ITEM: BOX BOUNDS pp pp pp
0 9.6809
0 9.6809
0 9.6809
ITEM: ATOMS id type x y z radius Transparency
0 1 0.5905514119598795 3.2251733697189837 7.9372746591973646 0.4358495000000000 0.2
1 1 5.0860439101386259 1.0452617545330849 3.1088026733614833 0.5124900000000000 0.2
2 1 8.0252505317039731 3.0080580622071640 8.1046080160657059 0.4162825000000000 0.2
3 1 1.2134266928895125 5.4561155166235613 6.0715894421098451 0.5000000000000000 0.2
4 1 5.6880674058101981 8.9286811379763495 1.7596405613952966 0.5380900000000000 0.2
5 1 3.7312703001599443 0.2438932174068786 7.8731656440897737 0.5163150000000000 0.2
6 1 8.3137840831177900 3.0936300049714225 0.5358380633895078 0.3666925000000000 0.2
7 1 8.9110432502013381 0.5893193300573684 5.8067628368441904 0.3766435000000000 0.2
8 1 5.2177115524512985 9.5929695002460971 3.7531664471007051 0.7919650000000000 0.2
9 1 0.8546266081879109 1.4787700135706507 6.1172053126671182 0.4401755000000000 0.2
10 1 0.8482456091110686 5.9980678456744405 4.0091539843756578 0.6164200000000000 0.2
11 1 4.8228269302996329 7.0387484909993123 0.7141015398107249 0.4648655000000000 0.2
12 1 9.1269507894408530 7.9195142574691015 7.6736036587742422 0.5510300000000000 0.2
13 1 7.9087739337832552 6.6108742128692040 8.6280366770713588 0.7180050000000000 0.2
14 1 6.7002830661726467 5.8614011835906705 1.8345289912865765 0.4623000000000000 0.2
15 1 8.6217685529018464 1.3334311309922651 3.4546676428366565 0.6967300000000000 0.2
16 1 6.0814040688434785 7.7719653119118837 8.9829995409512424 0.6073950000000000 0.2
17 1 7.3248642733076403 7.8696172016975954 3.8462558650771905 0.3707300000000000 0.2
18 1 4.4655644184743331 8.5520699722160263 0.5023440355498388 0.4403200000000000 0.2
19 1 7.7226693330120524 7.7406227300360237 2.0167732468184156 0.3662995000000000 0.2
20 1 3.5319926315398864 3.3241387969650904 3.4221427531502964 0.7897999999999999 0.2
21 1 7.0733076431260393 1.2409870386626605 6.8960240391404941 0.6512000000000000 0.2
22 1 9.0044344161809633 6.7220127566186285 6.1719298366846411 0.3904030000000000 0.2
23 1 6.8149114098669745 7.5298775345885058 4.2848008802198132 0.3714140000000000 0.2
24 1 4.0778320210185504 6.4595984989688704 9.4941915824582299 0.3616105000000000 0.2
25 1 4.7976833598767668 3.0078125836284095 0.4344597501786560 0.5147250000000000 0.2
26 1 3.1545302426870854 3.7805027455870954 4.8795764927209424 0.7802550000000000 0.2
27 1 4.6263725646588432 7.9715902920745210 6.4392524494006489 0.4616785000000000 0.2
28 1 0.2647111273628897 2.1698742369322974 2.5992298472659416 0.4039595000000000 0.2
29 1 7.6951070825065191 4.1127100758587600 7.9579645181611092 0.7415450000000000 0.2
30 1 5.1061996637552252 7.8031459824372913 0.0450455227041090 0.5892150000000000 0.2
31 1 2.2098980090975129 7.9598414469213177 2.7134064124513340 0.6583500000000000 0.2
32 1 8.4675081839196640 1.4971969712948938 1.2900919218092317 0.7759100000000000 0.2
33 1 1.5197893663706448 1.6180559857536421 7.5420550875745276 0.4519360000000000 0.2
34 1 7.8222151580897208 1.9449579827701309 7.0129322281942734 0.3747375000000000 0.2
35 1 7.5322971414083231 8.9503025580045641 7.9710085216616342 0.4120415000000000 0.2
36 1 7.9003712646219730 9.0781180122198855 4.3628373233267688 0.5750800000000000 0.2
37 1 1.1299830379495504 0.4448600451132816 1.3586476583255034 0.5162500000000000 0.2
38 1 4.8476639919950690 0.4646090728239536 4.9729713419578356 0.5941850000000000 0.2
39 1 3.1830114425358329 4.4278790173274496 6.9838591386123934 0.6515550000000000 0.2
40 1 2.1529068882558211 0.7384855047590171 7.8003375292414585 0.6209500000000000 0.2
41 1 0.5229502301711889 4.5158325512201944 8.1629573624485623 0.4182075000000000 0.2
42 1 8.8317018647051100 5.1647584495653645 9.0126166155207983 0.4843040000000000 0.2
43 1 0.0599397240076046 9.0562296442204282 7.4613530790168747 0.7351350000000000 0.2
44 1 2.6479676572839215 6.6474073165507201 3.5092093843480527 0.3681760000000000 0.2
45 1 9.6394680312314254 5.6568694714852521 1.4530923534900835 0.4605120000000000 0.2
46 1 5.3300668524746575 7.8799746092206755 1.8004328950338420 0.5314000000000000 0.2
47 1 6.6337017873038526 3.5832176912963578 0.1026342944630579 0.3917005000000000 0.2
48 1 9.1526109554965966 3.2945637258168419 5.1420713421352717 0.3983635000000000 0.2
49 1 9.5820145049444569 5.7717148254857324 8.9384536347896599 0.4824545000000000 0.2
50 1 2.9400726571569882 9.0556837806115400 0.6044975548234984 0.4489110000000000 0.2
51 1 1.8190751555537945 1.4398900810334356 4.3476586510885999 0.6179400000000000 0.2
52 1 0.9100066800553654 6.5748813150898480 1.2783464200628534 0.3742770000000000 0.2
53 1 9.2477769234649028 7.4044967774190598 4.6612039089765265 0.6348300000000000 0.2
54 1 3.3866262895144050 6.0855091870511702 9.4041081719421467 0.4236810000000000 0.2
55 1 1.1532895833288828 5.4733006237157218 1.2739273807332454 0.6781700000000001 0.2
56 1 5.1281550706845094 9.4822203112165315 5.7142341084609178 0.3870130000000000 0.2
57 1 3.2601082400854122 4.9832425975208716 8.8764411135025068 0.6346650000000000 0.2
58 1 0.6245118289860598 6.4693572102938735 3.1133513908333481 0.3912565000000000 0.2
59 1 3.8133974028825146 3.3595983894633079 7.6813969792631589 0.7547750000000000 0.2
60 1 6.9641548764352859 5.0814183900630434 5.8758067509721377 0.3948225000000000 0.2
61 1 6.7311037367667517 4.2679177417459533 2.6286060668886724 0.4921890000000000 0.2
62 1 6.0622834503209928 5.6132190340162538 5.5026317205626789 0.4629365000000000 0.2
63 1 6.8732441249809115 0.8812453651143526 8.8284911455863568 0.3616485000000000 0.2
64 1 9.3013134235313899 8.2080403520434473 0.2766088122471218 0.4217555000000000 0.2
65 1 7.0087941238345559 2.9520493516418731 8.1089101822521084 0.5792300000000000 0.2
66 1 3.7653599131353634 4.8341473720815555 3.3728551596198155 0.4498485000000000 0.2
67 1 3.8687776661348554 7.1550161697631731 7.5623957687183214 0.4212635000000000 0.2
68 1 4.5701206798389915 1.3319793953010319 0.9914838567214621 0.4587420000000000 0.2
69 1 4.5057660131976585 8.4152064714052894 3.7020912634009044 0.5822300000000000 0.2
70 1 7.4819731168445163 4.7341151227278271 2.8006121176079675 0.4044480000000000 0.2
71 1 9.4517035645880512 1.5961444729697485 8.2151149368136061 0.3764255000000000 0.2
72 1 8.5882330962755074 2.7914877517021988 8.6628071989169477 0.3927705000000000 0.2
73 1 7.1469150090520133 6.2264601971756575 6.8496696540440958 0.5562500000000000 0.2
74 1 0.0176530602353677 0.7262712368934249 0.8145726970991843 0.7324700000000000 0.2
75 1 2.2340258418730690 1.4358410280678922 3.3525499799614593 0.4321290000000000 0.2
76 1 2.7909473642124074 5.5406676486626170 3.9216866315086798 0.7884350000000000 0.2
77 1 6.3753641770040623 4.3008865050250078 0.6441960180709748 0.4313700000000000 0.2
78 1 8.9539517402393578 5.9315373111318159 0.3071341673873367 0.7426700000000001 0.2
79 1 1.2636728860676565 9.5482107768445470 7.5491784216725728 0.5587299999999999 0.2
80 1 9.2544308903868018 8.8046370366814681 4.3392354517158980 0.7997950000000000 0.2
81 1 2.9310947799744960 8.5967305618801486 2.1105143614914317 0.4579850000000000 0.2
82 1 8.6371705988722844 0.4828361296822052 4.7341201483292368 0.7346549999999999 0.2
83 1 2.4979149713854198 0.5123211732256078 5.5031064189517815 0.4215560000000000 0.2
84 1 0.8686646519946223 6.9311684500137263 7.7651219532618319 0.4607780000000000 0.2
85 1 1.6287190597292249 4.2675501008084584 2.7617125438032213 0.4999980000000000 0.2
86 1 2.8739846510684335 2.6316739323648015 5.1781552531288799 0.3806465000000000 0.2
87 1 2.0681160171669992 2.4047999702022205 7.8316491222453486 0.4997205000000000 0.2
88 1 1.0684360939102369 9.5342616673493588 6.5115108514006081 0.4046105000000000 0.2
89 1 5.3835825103830972 7.4165841864774471 4.9696526400045959 0.5063350000000000 0.2
90 1 8.4627392435447000 8.9125838700857187 0.6547102615480016 0.7369250000000001 0.2
91 1 2.5192941169673073 3.4761607359582185 7.6974137871393280 0.5393500000000000 0.2
92 1 2.6019442657921346 4.5735852880019818 8.0117146454028969 0.5210050000000001 0.2
93 1 3.4919915640991497 4.8192242167306407 4.5031569917105401 0.3715265000000000 0.2
94 1 8.3671744248412558 6.9036397588579881 9.6512587390451685 0.4147785000000000 0.2
95 1 5.2288425561922969 5.3576648921428287 9.4071485035984406 0.5593250000000000 0.2
96 1 1.5785843176082568 1.0397077221766349 2.8632555392366461 0.4392310000000000 0.2
97 1 0.2774658769383940 5.1961778334333459 6.3047956530190712 0.4929155000000000 0.2
98 1 2.7494866356112415 2.2549816661219841 3.0098047026003969 0.5589350000000000 0.2
99 1 0.2458039567243437 2.3538971794379844 8.1117490813455593 0.5029200000000000 0.2
100 1 1.3744080749978571 2.2282751573143735 3.0639652142182334 0.7714299999999999 0.2
101 1 7.6865246717140661 3.2930715871829563 9.1979306484360563 0.7448150000000000 0.2
102 1 8.7899344613334591 2.2685330459028594 7.6575592972528455 0.7168150000000000 0.2
103 1 5.8243328428572703 3.4997820824593004 0.1479882636479987 0.4075345000000000 0.2
104 1 0.7160427415277496 6.1262226451598245 9.0544544856798659 0.4109360000000000 0.2
105 1 6.1974205624054743 8.8245525646900091 4.1551908279795509 0.4319070000000000 0.2
106 1 3.5316179331213013 1.6243700004706414 9.0669936347114692 0.6148200000000000 0.2
107 1 1.6953160101445215 0.1507281712713922 5.8668940625341595 0.5135600000000000 0.2
108 1 9.4977270337105431 0.5775309784445356 3.8260360875569064 0.5124750000000000 0.2
109 1 6.8290472145113430 7.6919663856363130 7.3071393656859254 0.4586710000000000 0.2
110 1 2.5956812363923860 2.1380912717227054 5.8971661920275791 0.5212350000000000 0.2
111 1 9.4776322768306347 9.3067053115991438 1.0418678613638217 0.4070420000000000 0.2
112 1 8.8061647176666451 0.1435210470256220 1.5081861602774165 0.5330650000000000 0.2
113 1 7.1568255205480984 0.6514950566510523 5.9220150930140569 0.4884800000000000 0.2
114 1 8.2476600800123858 1.8939344969113807 2.4767493731770913 0.4865350000000000 0.2
115 1 7.6284304796739537 1.1340510873008600 2.1533547592241820 0.4578045000000000 0.2
116 1 6.1859790606901290 8.3367691652421136 2.3475945982875008 0.3993510000000000 0.2
117 1 5.4673635591079277 6.6755940087125900 4.3022802531067459 0.4889610000000000 0.2
118 1 6.5512951269996673 5.9399141866769254 0.9212412748830913 0.4600195000000000 0.2
119 1 3.7787457619187621 8.9459311952310472 1.2753512376671197 0.6193600000000000 0.2
120 1 4.1447704805705454 5.4924545234205695 9.4480780598524241 0.5329250000000000 0.2
121 1 0.4940560704168668 9.6028001653431865 4.0316961561743012 0.4515735000000000 0.2
122 1 5.6888056723783826 2.0542422467124735 4.5144071582018332 0.6554050000000000 0.2
123 1 1.9902972556085776 4.7760267930579712 9.2504870160491368 0.6981200000000000 0.2
124 1 1.6131410287516501 5.2230967480281425 6.9275597042075674 0.3930615000000000 0.2
125 1 4.3098653518868595 6.4288713059188591 5.1111868785435304 0.3694375000000000 0.2
126 1 6.1725531335061428 3.9869968578440513 7.3006215710097475 0.3683290000000000 0.2
127 1 4.6996387180753310 6.1666776244831993 0.3308422318195011 0.4933850000000000 0.2
128 1 5.2941711271405039 2.5609782482539658 7.9785147808056331 0.4001935000000000 0.2
129 1 6.8109135595077399 6.9835400170084601 0.8041598636515196 0.6196250000000000 0.2
130 1 7.9418919801094940 6.7902509112148621 2.5385630863323203 0.3728560000000000 0.2
131 1 6.5121984882208226 0.6899730466593698 4.9824330150687715 0.6510100000000000 0.2
132 1 1.2892467150652163 2.5406434484923386 0.6673955733129752 0.4206400000000000 0.2
133 1 7.3408041903849490 7.6199212198254944 1.3785625470888472 0.3834890000000000 0.2
134 1 0.8858017231758974 6.0945691468193912 5.1970485998635816 0.5621200000000000 0.2
135 1 1.5522129408983483 1.8226310975678508 1.9510643136437416 0.3754805000000000 0.2
136 1 9.3147711883669402 9.4378540088218053 5.4764199884766409 0.5002350000000000 0.2
137 1 5.0497728238023312 6.5921606629802296 5.1107598646166368 0.3880280000000000 0.2
138 1 4.5127085534320557 5.0101347515736929 0.8510726669970406 0.7032150000000000 0.2
139 1 6.6037976123563453 7.1839759981910793 6.2314212365719168 0.6983700000000000 0.2
140 1 6.6789736521738696 6.9014568488648909 8.4062610318900752 0.4542710000000000 0.2
141 1 8.5266237476777569 0.4380966075036361 0.6026938100803492 0.4566025000000000 0.2
142 1 6.2462375829766401 2.7602429993452215 2.2526784924089225 0.3743885000000000 0.2
143 1 2.3233061772423218 1.1541768625083857 8.8601545794003744 0.4806770000000000 0.2
144 1 6.3821710422084541 2.8592677241128257 4.0850297956479569 0.4859215000000000 0.2
145 1 0.0280198559660408 1.8331298910018481 1.4825240673656526 0.4706720000000000 0.2
146 1 2.9659436627271312 3.8022429805754170 1.2815414766821760 0.5096900000000000 0.2
147 1 6.6063105488100602 8.7913360537420324 7.5541334861474150 0.6143800000000000 0.2
148 1 5.1880843173740949 -0.0344002916621998 2.3231054925350696 0.5011050000000000 0.2
149 1 9.6038553502600372 6.7151745059738124 1.4316493648402386 0.5804450000000000 0.2
150 1 4.7753528985075429 9.1648086709581360 4.7613533000270865 0.3770395000000000 0.2
151 1 3.8722785259632282 2.9658305647010432 9.1778158944073809 0.7732599999999999 0.2
152 1 6.7646665853837380 0.4756344506729376 9.5687131829288958 0.4307570000000000 0.2
153 1 7.7395775265455553 0.2558820010156992 2.3331468487395775 0.3905040000000000 0.2
154 1 0.2291193810188935 9.6407594703969828 1.9852454799273687 0.6826100000000001 0.2
155 1 2.5983921501565299 5.4642859775414827 7.3095530351640656 0.5766050000000000 0.2
156 1 9.4552862989094990 0.7236856785028527 2.7976265522957067 0.5191050000000000 0.2
157 1 2.6216640431557150 2.5356610428904505 1.3113921694181458 0.4106890000000000 0.2
158 1 5.8167971335046431 6.9102757031916955 8.5115197699223817 0.4093745000000000 0.2
159 1 9.4495617980386850 5.2992452696147252 7.1381674809552349 0.4335330000000000 0.2
160 1 6.8954100927341750 8.5103655082406071 6.3380032381246352 0.6605200000000000 0.2
161 1 0.3118991610031838 2.7732913405259785 8.9395304517027334 0.4215420000000000 0.2
162 1 7.5520094802335578 6.9143928352648647 3.9563193866279787 0.6129550000000000 0.2
163 1 7.6788823013242613 4.4771127694946102 1.9503946677741271 0.4975395000000000 0.2
164 1 3.9255968074911558 3.7094806222397789 0.5965654791197862 0.5540900000000000 0.2
165 1 5.4520451325381227 2.5969076835551061 2.0576255676118831 0.4538265000000000 0.2
166 1 4.3149705423644908 5.9669478319265377 6.7203582354101670 0.4059420000000000 0.2
167 1 6.1037355714121926 2.5458486365747071 7.9381975441676129 0.4023925000000000 0.2
168 1 3.3326928981885544 7.5872055013657533 8.1696144315768215 0.4874140000000000 0.2
169 1 8.4775382802313128 3.5078615190604032 2.6430524645809248 0.3875285000000000 0.2
170 1 2.7120589616701265 9.0826021442760503 4.4364136061469530 0.6087600000000000 0.2
171 1 6.4769614876288442 4.1082269958709459 8.1072713616076495 0.4647605000000000 0.2
172 1 3.1852431672884567 5.9733901304815440 2.8960806765736931 0.3842370000000000 0.2
173 1 4.1888541364492653 0.6999041025439312 3.6852862926859564 0.4935495000000000 0.2
174 1 7.0256703060690020 0.3550981306575274 7.8764073273697788 0.6664150000000000 0.2
175 1 3.9157912541749433 8.1348624414835164 8.5787946128153632 0.4035855000000000 0.2
176 1 7.5204960184872256 7.6837553339887901 6.5022033142257074 0.3725095000000000 0.2
177 1 4.1405123621872590 1.0063048476597691 7.2447095374322483 0.4475955000000000 0.2
178 1 5.9314293488249676 0.7179409726682650 0.6550675361969570 0.4688440000000000 0.2
179 1 0.4620253265106474 2.3284655237097756 0.7135911688010600 0.3881465000000000 0.2
180 1 3.3020220266370628 0.5581662160476980 4.0849495099851429 0.4656750000000000 0.2
181 1 0.1136940235107480 7.8502072878700657 6.0916831715509447 0.3877605000000000 0.2
182 1 2.2819175775456042 8.0886563132330576 6.9649559087190358 0.7812600000000000 0.2
183 1 7.6888133215662684 5.2986303972013236 3.3001131823104797 0.3735800000000000 0.2
184 1 3.8134942779364605 7.0715729833361651 4.7024976894490988 0.4885015000000000 0.2
185 1 4.8796292827057686 4.0886513186707569 9.4492845801834875 0.7562449999999999 0.2
186 1 0.1674507664359933 4.2375904508614255 -0.0227580370407728 0.3917555000000000 0.2
187 1 0.1406992324640883 6.8898485731671908 5.6341350830569850 0.5989550000000000 0.2
188 1 1.8863697884798103 4.9681955906562587 2.0638380775020524 0.5107000000000000 0.2
189 1 8.9553597358456525 5.7062432081794769 4.6592063773126284 0.4564810000000000 0.2
190 1 4.7489941500315291 3.4087378224856235 3.8635094786338988 0.3762735000000000 0.2
191 1 8.7102452318750014 4.7928516475850733 1.2830227961974510 0.7685900000000000 0.2
192 1 3.2225955626509193 5.2081579504901159 2.8369155737455678 0.3672850000000000 0.2
193 1 0.7824686205016679 9.1966284028576073 0.8105342150046436 0.6089250000000000 0.2
194 1 8.4421845082993965 8.1300974400174173 5.0997887637227208 0.4995680000000000 0.2
195 1 7.5294895615421433 9.2709335732028464 3.0450121842147966 0.6020400000000000 0.2
196 1 9.2185451869946160 1.6698401383442771 2.3326020420663545 0.5104050000000000 0.2
197 1 8.4497123246878392 2.8072006052003249 1.9932477466754710 0.5590000000000001 0.2
198 1 6.1968889254123916 1.5420899111705273 1.2298925384888459 0.5690250000000000 0.2
199 1 4.2934441486759969 0.4794328550781176 2.6843182579207587 0.5291500000000000 0.2
200 1 7.5299703354424770 0.3458483999638933 1.2556247201520185 0.7091850000000000 0.2
201 1 9.3769625570845889 2.3223452129476581 6.6133709576109689 0.3922940000000000 0.2
202 1 3.4440101144916735 7.7375594684289624 9.1833567054594845 0.4542570000000000 0.2
203 1 8.1627024261508794 6.3689778491638505 3.2960557425691306 0.4367300000000000 0.2
204 1 5.2355313705625965 1.7469622324419458 9.3264106668044864 0.3620035000000000 0.2
205 1 7.7023702807850745 2.2495159709886479 6.2803052371471972 0.4203840000000000 0.2
206 1 6.4740165006060977 6.0283438495196364 4.4527540931639198 0.7108950000000001 0.2
207 1 9.2301692555353689 8.8288199618589527 8.8939760210818815 0.7976950000000000 0.2
208 1 6.7665938247508643 3.8812863994552940 4.5479937978124099 0.6991350000000000 0.2
209 1 2.1125509667779538 8.4283817519410675 1.7027116998843128 0.4522140000000000 0.2
210 1 5.8549518301137669 5.8129947638294475 8.4396860439667982 0.6662150000000000 0.2
211 1 8.6484681556835650 1.2042278038670773 8.7802048204335019 0.6427600000000000 0.2
212 1 6.0972477051733334 6.7146931065918842 7.4353766792640101 0.6864050000000000 0.2
213 1 9.4731125642184590 5.8778459244624370 4.0378305425559660 0.3643480000000000 0.2
214 1 5.1019218805594733 1.0471106442054696 7.0912052781661483 0.3931265000000000 0.2
215 1 2.1314143531419241 2.1057246443832098 0.6197272389583303 0.4988025000000000 0.2
216 1 3.2328460625162787 9.5636982770742769 8.7613014929064477 0.4258295000000000 0.2
217 1 0.8127502186819643 2.6930061032554331 1.7552456189943286 0.7249600000000000 0.2
218 1 2.4355055822570333 7.0086493600614430 8.8916504698873648 0.8004250000000001 0.2
219 1 3.8217855077082961 7.9273486416991625 5.5472922445407606 0.6742950000000000 0.2
220 1 3.6819475400407704 0.0779461827780179 6.7516012789476623 0.6171400000000000 0.2
221 1 3.1922344648933048 7.1280603068776909 7.0506050316815818 0.3789600000000000 0.2
222 1 6.4895067606852201 2.6149400572016663 4.9444562421172513 0.4103385000000000 0.2
223 1 2.8025364561870383 9.1469487063903969 1.4312616007854797 0.3791875000000000 0.2
224 1 2.5341650559097517 0.1308339513032208 3.4912779516665848 0.5900750000000000 0.2
225 1 2.5801774917062756 3.8481929672738389 6.0948341386176246 0.5634000000000000 0.2
226 1 0.3122706244547616 6.0547492596097925 0.7801608080822106 0.3972660000000000 0.2
227 1 1.1102616240878160 1.6995283785796946 5.0960984551604041 0.4406405000000000 0.2
228 1 4.9505968330917325 3.3267622757445188 1.9655847812015956 0.4212955000000000 0.2
229 1 5.1446715825414486 6.5465729523796670 8.0053580476662844 0.4342980000000000 0.2
230 1 5.8879075812544315 0.4235874700742251 9.4459179934332518 0.4468830000000000 0.2
231 1 1.8587565711891074 5.2287686780837390 3.0461260951542917 0.5014150000000001 0.2
232 1 0.9391271001150137 1.9184464757280324 4.1154117720549310 0.3919050000000000 0.2
233 1 8.3321088071652891 4.9952205157136866 4.5025212408256925 0.4279395000000000 0.2
234 1 4.0701999460513623 7.5514764269418846 0.3477672548735537 0.5157200000000000 0.2
235 1 2.5683973502370394 6.7050015224676507 2.4504206007976328 0.6631050000000001 0.2
236 1 4.3321534903340213 9.4895575771333949 1.9884483067208885 0.4266340000000000 0.2
237 1 4.0616674369320336 5.3823861933499044 4.1310746549410000 0.4714780000000000 0.2
238 1 1.0164552920863004 5.7489653201297841 3.0240783188435967 0.4133880000000000 0.2
239 1 1.0801828957913169 8.3723228008608572 8.9511461622916695 0.3964360000000000 0.2
240 1 3.9713136011967394 4.7597241969800992 5.2153397130573449 0.4584380000000000 0.2
241 1 7.2598929061093820 4.2481245069470255 0.2549931451983926 0.5325600000000000 0.2
242 1 7.3177911100370832 3.2337754762537090 0.8277391199091432 0.6176450000000000 0.2
243 1 0.8887808767763090 8.6798425491713722 4.0598047329903606 0.5469750000000000 0.2
244 1 7.5771484215729048 9.2523524756527049 7.0792661857749470 0.5109900000000001 0.2
245 1 0.0658153172959134 2.9048416105582020 7.2171022201583623 0.5107750000000000 0.2
246 1 5.5383103923631705 9.3158108180235537 -0.0198333661312162 0.4332370000000000 0.2
247 1 4.0923246411997614 9.2893196471944535 5.5609401856435010 0.6751100000000000 0.2
248 1 2.1792119288802954 0.9354104831166463 0.7801432105121092 0.6194900000000000 0.2
249 1 5.8024330851754060 6.5859178298762755 9.6240519281635724 0.7410700000000000 0.2
250 1 4.6844889189135275 5.8994475020773605 4.6191360387604821 0.4341765000000000 0.2
251 1 6.8574446884431781 0.5790464596928049 2.7096036514638260 0.6040600000000000 0.2
252 1 5.4660472657773900 5.9873997826889491 4.8864492496749845 0.3793940000000000 0.2
253 1 8.7303183527215484 6.0028691974865893 5.9958559179607178 0.3802975000000000 0.2
254 1 4.1730350799028848 9.2083516757226604 7.4833351615764192 0.4100760000000000 0.2
255 1 4.2712444388158888 9.2484208310524263 3.0378443601187799 0.4402720000000000 0.2
256 1 7.3262909385709278 6.4209782474859614 3.0330206496845902 0.4410130000000000 0.2
257 1 7.2152441321033240 8.1877313270875458 0.2153927930841808 0.7601800000000000 0.2
258 1 4.9020291348017304 2.7983393226252815 4.8094511770994002 0.3783790000000000 0.2
259 1 3.4504330005534323 6.9508171553768632 9.6113543146499723 0.4401500000000000 0.2
260 1 2.2629617678947782 3.7231344856558728 9.1979306127863598 0.3768320000000000 0.2
261 1 3.2680924128075755 1.1113420255924480 3.0336339364308227 0.6957000000000000 0.2
262 1 3.9463801931773532 7.1904373697252089 1.3584977667533304 0.4153870000000000 0.2
263 1 1.7290743082598679 7.3890393686277678 7.8307420153217855 0.4527635000000000 0.2
264 1 5.8201641474750083 0.5160034776939391 2.7925199737464985 0.4206925000000000 0.2
265 1 5.8094603733545522 2.9688287534531055 0.8752510934693585 0.3970845000000000 0.2
266 1 3.2075959309574551 0.9784227117428521 7.3907003746864568 0.4751475000000000 0.2
267 1 9.6915358981092865 0.5405787376971796 5.1413069582505413 0.3903970000000000 0.2
268 1 1.6820161271914540 1.5826817659754802 8.3932235908686224 0.4143280000000000 0.2
269 1 2.0058139866720621 2.1313798480689234 5.1534635521402539 0.4273745000000000 0.2
270 1 0.0521036296273222 5.7144870834799644 3.1278534243184573 0.5472300000000000 0.2
271 1 2.4971559400054693 3.1398228990959880 1.8783375420396562 0.4104315000000000 0.2
272 1 3.2896662772690033 0.3557803246685600 5.8712489100123753 0.3758865000000000 0.2
273 1 7.2553025670988420 2.8729995366581758 4.6402675415463355 0.3890110000000000 0.2
274 1 2.3543265697132827 8.8585664418031911 8.5702499711016422 0.4250455000000000 0.2
275 1 1.2636606388761131 5.5763302933327150 0.1397583828429502 0.4657100000000000 0.2
276 1 4.7373190046548990 5.9287363635848314 3.0346176056810261 0.4011220000000000 0.2
277 1 9.1900504013333304 8.3214300113674753 6.5794882839437330 0.5204299999999999 0.2
278 1 6.6663047708584653 9.3987317564626291 5.6067194718107114 0.4771200000000000 0.2
279 1 8.5164248410689911 0.7377643463868510 2.3478011744964133 0.5194950000000000 0.2
280 1 1.9941985156062918 2.8768719318741658 6.6945241978502894 0.7186650000000000 0.2
281 1 0.0422146438750719 8.6642969136790988 2.4538462785947490 0.4075430000000000 0.2
282 1 9.5763223474119314 5.0151360681706292 9.5892413220079415 0.4294830000000000 0.2
283 1 5.5740957777676883 4.8405971324055201 0.4551795720908327 0.3975925000000000 0.2
284 1 8.1185282648485728 7.3851046640799014 7.7472297028839163 0.4683260000000000 0.2
285 1 2.4091476635478934 5.8235616813818911 1.4848115924749747 0.6296650000000000 0.2
286 1 5.6481386712309662 1.3375850958746613 5.5982041635393074 0.5677900000000000 0.2
287 1 3.4933874340555064 5.5264584588901986 1.2672083950821509 0.5117850000000000 0.2
288 1 2.1717141197956020 4.6306540760264845 0.9466801828395223 0.6814950000000000 0.2
289 1 4.2057473462775006 8.5743699676918048 4.8095914770360562 0.3640450000000000 0.2
290 1 1.0475910934386674 3.1489608089768839 5.9992192440890877 0.4832135000000000 0.2
291 1 2.2130237945561873 9.1701902850703831 7.6350363630753364 0.4310715000000000 0.2
292 1 5.3130595641531331 3.0125115629388941 4.2091470583338566 0.3779315000000000 0.2
293 1 6.1522093181249815 7.6464435418100862 0.3348096395660542 0.4235115000000000 0.2
294 1 7.9584070601715640 4.3021699410013481 4.2590604023693253 0.3827835000000000 0.2
295 1 1.8210328164851635 0.7789295851733625 3.5971248773975422 0.3668520000000000 0.2
296 1 1.7927413088967279 1.0010764329676054 1.8019180288452190 0.4482195000000000 0.2
297 1 4.6701715457141759 3.8877601912778634 6.9087137657013518 0.4467520000000000 0.2
298 1 9.0787146970886834 4.0481224781373566 4.4403782653403781 0.4643865000000000 0.2
299 1 0.9311174679506178 5.0881822061532924 2.3857226382761194 0.5043250000000000 0.2
300 1 8.8710982976288317 7.8837303912201433 1.0643815381291575 0.3650950000000000 0.2
301 1 9.3486971078803247 2.6616484148165549 5.7991457426842787 0.4631000000000000 0.2
302 1 0.7926012518083638 4.8081924855498324 3.5193755681779169 0.6255800000000000 0.2
303 1 0.5680282618834901 7.9213579123312829 2.4830822090595901 0.4898265000000000 0.2
304 1 4.2269973835602723 7.3106224865385174 3.7880350131925935 0.5391899999999999 0.2
305 1 1.1410088077415304 8.6836994474574212 6.9304364494602524 0.5052550000000000 0.2
306 1 2.0809435524426108 2.4305671313940680 2.1361436334179773 0.4064860000000000 0.2
307 1 2.9082753206351066 2.5826120317173857 7.3969961109195346 0.4591620000000000 0.2
308 1 4.5024741249652500 1.9834751358030320 0.1748265301098737 0.5725300000000000 0.2
309 1 3.3608911182622667 5.4917022959034778 5.6192863541232736 0.3806120000000000 0.2
310 1 1.9282729380290293 8.7833803185755066 3.5941592881742457 0.5794000000000000 0.2
311 1 9.3140242529683022 0.8554524974964809 1.9088864243229517 0.3863345000000000 0.2
312 1 8.0795462050562854 0.5495901726833465 5.8995526417456832 0.4145930000000000 0.2
313 1 7.9440531596006387 1.2899769977786608 7.7721900150263572 0.5772150000000000 0.2
314 1 3.8290854160954124 3.5797261958784166 6.1772852316043894 0.6779450000000000 0.2
315 1 5.9271339332794275 3.9076503508638853 5.3884382930087771 0.4881620000000000 0.2
316 1 6.3655634400283363 8.1317857355216585 5.1172142289572591 0.7145100000000000 0.2
317 1 2.0882251589246899 8.8451480411392378 0.8818615832977763 0.4682660000000000 0.2
318 1 8.5265353489038471 7.5133087275181296 6.8427899373696386 0.5303150000000000 0.2
319 1 7.1932153547550364 2.2528986159318296 1.8311067436981916 0.7761400000000001 0.2
320 1 2.5550049390722616 0.5226317776845871 6.5712807477483581 0.6062400000000000 0.2
321 1 3.7753102568994272 6.5933701276158470 6.9368400352916924 0.3753820000000000 0.2
322 1 7.6042408540278474 9.4268659666525476 6.0515375392917194 0.5272950000000000 0.2
323 1 8.6480225623774487 1.2107651928727201 6.6742845983100549 0.7030050000000000 0.2
324 1 3.7689012261601453 2.2894732168584047 2.5002829256575922 0.5419200000000000 0.2
325 1 3.5259202417443678 8.0186684643955690 4.3296293685302238 0.5675249999999999 0.2
326 1 1.1296151236200225 7.0728360561145625 5.4312384687277415 0.4247185000000000 0.2
327 1 2.8062169945387843 0.9716920519464531 1.8002769690410683 0.5043700000000000 0.2
328 1 8.3419587843712701 3.9254574985486155 1.9340308479202135 0.3649925000000000 0.2
329 1 6.0485509703831024 0.4658203149316411 1.7559611862249240 0.6354100000000000 0.2
330 1 3.9509277459135350 8.7863776994354694 2.3238030144744983 0.4381000000000000 0.2
331 1 0.2272993035257588 0.4987956071752688 6.2103254200077620 0.6961050000000000 0.2
332 1 3.5444532513270799 1.3682148928479227 6.2988287182872993 0.7026900000000000 0.2
333 1 7.8467521246059135 8.9841581139928834 8.8918462063278145 0.5592650000000000 0.2
334 1 6.0295978351589152 1.5901408300492272 6.5721031216826464 0.4512590000000000 0.2
335 1 1.0003108293308158 8.9484192034177887 2.8108421618372210 0.6422000000000000 0.2
336 1 9.3837141436306268 7.7087931337209810 8.5592565678360764 0.3773650000000000 0.2
337 1 5.2252592766580497 7.5724051712770537 3.9203257209899562 0.4981090000000000 0.2
338 1 5.5227948303457488 2.7382123188114593 7.0080645489777478 0.4054400000000000 0.2
339 1 2.9005698093758978 2.3345484326014669 9.4970654274283302 0.4034610000000000 0.2
340 1 5.8941413436994869 9.6767931958553426 7.8695004380704745 0.4980320000000000 0.2
341 1 9.2046709946219494 9.6010430807526479 0.1728083136618365 0.3660605000000000 0.2
342 1 3.2212711124723312 0.2149753149299534 4.9984990604221542 0.5017350000000000 0.2
343 1 6.6937774047972081 3.5026905868975700 3.3606934444517682 0.5283350000000000 0.2
344 1 2.9613247406765555 4.0864454867730089 0.0917637985060706 0.5928300000000000 0.2
345 1 9.1044027761665820 3.0883779350827223 4.2135681658109458 0.5066750000000000 0.2
346 1 3.5768255702734284 5.4671234936549356 4.8711461659563504 0.3775205000000000 0.2
347 1 0.3174101975697788 3.1917839734348834 5.3859209666868963 0.4711355000000000 0.2