ITEM: TIMESTEP
5
ITEM: NUMBER OF ATOMS
1000
ITEM: BOX BOUNDS pp pp pp
0 9.63373
0 9.63373
0 9.63373
ITEM: ATOMS id type x y z radius Transparency
0 1 0.5948841013884563 3.2020741145971230 7.8919520398405822 0.4358495000000000 0.2
1 1 5.0427353681200682 1.0343885661756511 3.0993771867927715 0.5124900000000000 0.2
2 1 7.9751426811476458 2.9876633393022125 8.0461190066370403 0.4162825000000000 0.2
3 1 1.2266838346432065 5.4336455174065721 6.0225406347449706 0.5000000000000000 0.2
4 1 5.6654102615364321 8.9336466169848485 1.7238517273984313 0.5380900000000000 0.2
5 1 3.7366893702257609 0.2298638561990175 7.8417336898158636 0.5163150000000000 0.2
6 1 8.2970537793274719 3.0662813380174665 0.5430303922254012 0.3666925000000000 0.2
7 1 8.8494645429145482 0.6183022216244993 5.8103295553509540 0.3766435000000000 0.2
8 1 5.1874775429398658 9.5245498440715863 3.7113487705717954 0.7919650000000000 0.2
9 1 0.8431032414777909 1.4588159136643242 6.1146417867002638 0.4401755000000000 0.2
10 1 0.8224794911456479 5.9717903668418124 4.0092555419501883 0.6164200000000000 0.2
11 1 4.7280192000463490 7.0185091320185409 0.7719650756999351 0.4648655000000000 0.2
12 1 9.0617278571406583 7.8810807652635786 7.6734888868266191 0.5510300000000000 0.2
13 1 7.8506421903915733 6.5833701078136677 8.5858497853642817 0.7180050000000000 0.2
14 1 6.6698755352598571 5.8209721126306473 1.8359924954432387 0.4623000000000000 0.2
15 1 8.5781525835441617 1.3106414450634520 3.4419262732291935 0.6967300000000000 0.2
16 1 5.9904963823294963 7.7598605939178391 8.8517516214478889 0.6073950000000000 0.2
17 1 7.2649989897272018 7.7998939791530084 3.8439531062564063 0.3707300000000000 0.2
18 1 4.4388210237229773 8.4510230029561519 0.5425333051111912 0.4403200000000000 0.2
19 1 7.6912308787724379 7.6629680060813232 2.0000974695068070 0.3662995000000000 0.2
20 1 3.5272978091178246 3.2591879190451638 3.4041751609531277 0.7897999999999999 0.2
21 1 7.0421795481739862 1.2395118059466927 6.8649215847617349 0.6512000000000000 0.2
22 1 8.9393245975096587 6.7037027958409015 6.1784966225271836 0.3904030000000000 0.2
23 1 6.7415820447242130 7.4767861594232894 4.2647649036211250 0.3714140000000000 0.2
24 1 4.0710532608678136 6.4286453612813350 9.4395486961847190 0.3616105000000000 0.2
25 1 4.8053557797601654 2.9860696262790407 0.4642515264098254 0.5147250000000000 0.2
26 1 3.1159030695934788 3.7718833919721630 4.8417356462802879 0.7802550000000000 0.2
27 1 4.5132733715412892 8.0189056285566060 6.4208589879508891 0.4616785000000000 0.2
28 1 0.2938929903122150 2.1155539076769041 2.6016211752594089 0.4039595000000000 0.2
29 1 7.6847594648648796 4.1045398094011389 7.9274576707955884 0.7415450000000000 0.2
30 1 5.0825528099610109 7.6952791189771874 -0.0042477754417797 0.5892150000000000 0.2
31 1 2.2261612141530764 7.8728675691463454 2.6735572083135812 0.6583500000000000 0.2
32 1 8.4476228380072929 1.4860206998623262 1.2936004987450622 0.7759100000000000 0.2
33 1 1.4780863677414116 1.5980476973197528 7.4885050096920169 0.4519360000000000 0.2
34 1 7.8293251898270420 1.9004133475237748 6.9953920239082867 0.3747375000000000 0.2
35 1 7.4805903100796556 8.9185151695320233 7.9369260992659703 0.4120415000000000 0.2
36 1 7.8909267020150322 9.0295395532184664 4.3375860619182038 0.5750800000000000 0.2
37 1 1.1377408760444323 0.4274285655963985 1.3453573167306239 0.5162500000000000 0.2
38 1 4.8230722800853032 0.4320378328040056 4.9354008690430335 0.5941850000000000 0.2
39 1 3.1808393783317381 4.4128662917693546 6.9259034250770242 0.6515550000000000 0.2
40 1 2.0955879768553323 0.7681957958609664 7.7953393381745180 0.6209500000000000 0.2
41 1 0.5121326931290829 4.4682246572153037 8.1243829967694268 0.4182075000000000 0.2
42 1 8.7670084865100719 5.1033862671067682 9.0235645523805950 0.4843040000000000 0.2
43 1 0.0557446417138853 9.0033997132758028 7.4315724624986386 0.7351350000000000 0.2
44 1 2.5761672364237720 6.6553160567764742 3.5967460610469222 0.3681760000000000 0.2
45 1 9.6022527280398737 5.5854640666623894 1.4503191080328732 0.4605120000000000 0.2
46 1 5.2802747597389459 7.7701058207494924 1.7761648229508886 0.5314000000000000 0.2
47 1 6.6171130542085628 3.5658664177638379 0.1121763861982621 0.3917005000000000 0.2
48 1 9.0949158829292820 3.3328615436570952 5.0675126633174168 0.3983635000000000 0.2
49 1 9.5138848078003253 5.7097550194590232 8.9234005667889722 0.4824545000000000 0.2
50 1 2.9413993355583945 8.9836650101582265 0.5795889860279140 0.4489110000000000 0.2
51 1 1.8251202159304174 1.3786237252102647 4.2904054120925634 0.6179400000000000 0.2
52 1 0.8502764962624689 6.4967417956339073 1.3065378905856511 0.3742770000000000 0.2
53 1 9.1960268688026954 7.3622730192334327 4.6556977881933754 0.6348300000000000 0.2
54 1 3.3899873809161725 6.0482797963057058 9.3485565396668679 0.4236810000000000 0.2
55 1 1.1296374915413512 5.4830983336744881 1.2404567027632820 0.6781700000000001 0.2
56 1 5.1124869970483031 9.4159615278519428 5.6548674130971355 0.3870130000000000 0.2
57 1 3.2452331587681438 4.9722762189295482 8.8268837037246417 0.6346650000000000 0.2
58 1 0.6202890816236678 6.4010978551595272 3.1150392495846657 0.3912565000000000 0.2
59 1 3.7882293603606505 3.3547061546095240 7.6349492222759032 0.7547750000000000 0.2
60 1 6.9204815031975402 5.0997902534922117 5.8029623553211591 0.3948225000000000 0.2
61 1 6.7213853415809606 4.1852331327191186 2.6046729672595914 0.4921890000000000 0.2
62 1 6.0201137967310574 5.6012965178118739 5.4721036261113847 0.4629365000000000 0.2
63 1 6.8438784538610768 0.9057351197938935 8.7720778997392888 0.3616485000000000 0.2
64 1 9.2683619281971001 8.1626109807651233 0.2801314460638505 0.4217555000000000 0.2
65 1 6.9793024616897466 2.9721758247978456 8.0485669547005667 0.5792300000000000 0.2
66 1 3.7332382021753592 4.8335181493151627 3.3472982931445521 0.4498485000000000 0.2
67 1 3.8137076369113916 7.0834580694357676 7.5360278316649323 0.4212635000000000 0.2
68 1 4.5447293933521440 1.3307782242399511 0.9750612607691296 0.4587420000000000 0.2
69 1 4.4474025172468012 8.3665956928964924 3.6696574377653368 0.5822300000000000 0.2
70 1 7.4393837709551862 4.6776958548251075 2.8360272744964754 0.4044480000000000 0.2
71 1 9.4180917441583709 1.5929812409399644 8.1852615999918736 0.3764255000000000 0.2
72 1 8.5369424247711088 2.7926005365778206 8.6055290673497318 0.3927705000000000 0.2
73 1 7.1133463083155277 6.2074050483201022 6.8164132977302936 0.5562500000000000 0.2
74 1 0.0410518691259348 0.7189617520453692 0.8201059108294581 0.7324700000000000 0.2
75 1 2.2015316774621612 1.3278496939060636 3.3088932696672910 0.4321290000000000 0.2
76 1 2.7731081031753733 5.4890537809708739 3.8862644795980783 0.7884350000000000 0.2
77 1 6.2988016472011319 4.2859071646962539 0.6302632031564549 0.4313700000000000 0.2
78 1 8.8914924785875336 5.8858572862960363 0.3301479384031618 0.7426700000000001 0.2
79 1 1.2523592279693576 9.5027387376755197 7.5193304228978057 0.5587299999999999 0.2
80 1 9.2383857875115769 8.7539020359691744 4.3094692140705462 0.7997950000000000 0.2
81 1 2.9748804151113641 8.5027192465622061 2.0565251360111518 0.4579850000000000 0.2
82 1 8.6064850505266435 0.4518817088294608 4.7382880294741545 0.7346549999999999 0.2
83 1 2.4444903574886623 0.4537902114713933 5.4040400287154657 0.4215560000000000 0.2
84 1 0.8426208165679532 6.8366950193346137 7.7402101258570051 0.4607780000000000 0.2
85 1 1.5639498765082878 4.2134310546734515 2.7516615299464124 0.4999980000000000 0.2
86 1 2.9206386310693939 2.6110884988583964 5.1618693007729570 0.3806465000000000 0.2
87 1 2.0414245420198336 2.3270007310603256 7.7757142429627235 0.4997205000000000 0.2
88 1 1.0134570284825133 9.4623968904524816 6.5730689928679871 0.4046105000000000 0.2
89 1 5.3449448020858439 7.3381239109179290 4.9600808991699328 0.5063350000000000 0.2
90 1 8.4264308052212513 8.8750115147814643 0.6393193040514898 0.7369250000000001 0.2
91 1 2.4943970588243176 3.4496940933826434 7.6421997639643005 0.5393500000000000 0.2
92 1 2.6138323922889959 4.5688803126142021 7.9431509874011947 0.5210050000000001 0.2
93 1 3.4967878239937669 4.8050435942188710 4.4949807763425911 0.3715265000000000 0.2
94 1 8.3208941760359263 6.8580426527855165 9.6603051094539492 0.4147785000000000 0.2
95 1 5.2059589527853243 5.3480552110456259 9.3594009485238558 0.5593250000000000 0.2
96 1 1.5578151788987520 0.9722101646698870 2.8335776410868192 0.4392310000000000 0.2
97 1 0.2978920632856593 5.1865871934201087 6.2856852035071515 0.4929155000000000 0.2
98 1 2.7632137045922747 2.2167207287527537 2.9970764310578057 0.5589350000000000 0.2
99 1 0.2528994277541644 2.3300143998113927 8.0741824228092636 0.5029200000000000 0.2
100 1 1.3841904887580321 2.1711980652544982 3.0456308388065270 0.7714299999999999 0.2
101 1 7.6553861071762714 3.2654656019089376 9.1541043987811825 0.7448150000000000 0.2
102 1 8.7474039541474884 2.2633960733029279 7.6323493329087535 0.7168150000000000 0.2
103 1 5.8232067457926897 3.4958096737594508 0.2084341165779821 0.4075345000000000 0.2
104 1 0.7008870373723574 6.0600044215129536 9.0045307665606487 0.4109360000000000 0.2
105 1 6.1840641807620154 8.7739445130858051 4.0960913785768813 0.4319070000000000 0.2
106 1 3.5182356192503992 1.6358804338560378 9.0582549777767731 0.6148200000000000 0.2
107 1 1.6859649324119848 0.1423666531783126 5.8639141103139423 0.5135600000000000 0.2
108 1 9.4454650101437618 0.5569619413902702 3.8212804506055300 0.5124750000000000 0.2
109 1 6.8375586021124599 7.5577067337024220 7.2289760846938576 0.4586710000000000 0.2
110 1 2.6106006790138157 2.1220225661657950 5.8617802023712091 0.5212350000000000 0.2
111 1 9.4238019974009113 9.2628763160747880 1.0450490007910762 0.4070420000000000 0.2
112 1 8.7630185021100093 0.1323504166718068 1.5271995705916090 0.5330650000000000 0.2
113 1 7.1339333061211310 0.6372769148687549 5.9008180577177098 0.4884800000000000 0.2
114 1 8.1885455850118110 1.8664268454580881 2.4708696928609659 0.4865350000000000 0.2
115 1 7.5810558371046755 1.0900400154275864 2.1657945547997723 0.4578045000000000 0.2
116 1 6.2071979637597243 8.2369068416913152 2.3605740725925233 0.3993510000000000 0.2
117 1 5.4318749578335801 6.6043581859036928 4.2716314825613075 0.4889610000000000 0.2
118 1 6.5116948609491354 5.9195720684700222 0.9255330203876696 0.4600195000000000 0.2
119 1 3.7870814702628541 8.8839460274234323 1.2664148273097282 0.6193600000000000 0.2
120 1 4.1192764419327315 5.4290985155503284 9.4524776436046505 0.5329250000000000 0.2
121 1 0.5203941258751418 9.5599765277700595 4.0194136649175167 0.4515735000000000 0.2
122 1 5.6886528860756256 2.0127831129206566 4.5033725685457107 0.6554050000000000 0.2
123 1 1.9877619270381521 4.7369740877658044 9.2075748406408966 0.6981200000000000 0.2
124 1 1.6292945821402018 5.1829816042436212 6.8891195816696236 0.3930615000000000 0.2
125 1 4.2336020523960878 6.3934970560254856 5.0617543105438587 0.3694375000000000 0.2
126 1 6.0805255892552967 3.9845814009220546 7.2850956452824693 0.3683290000000000 0.2
127 1 4.6654511714735536 6.1300799950893765 0.3432469312580897 0.4933850000000000 0.2
128 1 5.2665453274328584 2.5511441986531218 7.9379781326192065 0.4001935000000000 0.2
129 1 6.7481133148654182 6.9666621582604140 0.8079475881920751 0.6196250000000000 0.2
130 1 7.9232388122542856 6.7317590006658925 2.5603659323444359 0.3728560000000000 0.2
131 1 6.4909409309236565 0.6460999827231777 4.9587367077784439 0.6510100000000000 0.2
132 1 1.2875605838964199 2.5061712522370336 0.6199059551871230 0.4206400000000000 0.2
133 1 7.3578105294221068 7.5680039127656400 1.3333180203187089 0.3834890000000000 0.2
134 1 0.8733360896185343 6.0619500361450456 5.1834894207239692 0.5621200000000000 0.2
135 1 1.5422439251375146 1.8197331579665923 1.9224121724720560 0.3754805000000000 0.2
136 1 9.2874419822961691 9.3432082827658540 5.4695443437788249 0.5002350000000000 0.2
137 1 4.9784956015363315 6.5341166766597576 5.1004288879340454 0.3880280000000000 0.2
138 1 4.5013782158866382 4.9299676429882480 0.9018237954193102 0.7032150000000000 0.2
139 1 6.5324776183493034 7.1350488102299989 6.1939040322056265 0.6983700000000000 0.2
140 1 6.6486178887891834 6.8539237062050473 8.3584214940181010 0.4542710000000000 0.2
141 1 8.4784108276761483 0.4479610741267891 0.6276723198542015 0.4566025000000000 0.2
142 1 6.2059880478768417 2.7070781928534164 2.1945998095019901 0.3743885000000000 0.2
143 1 2.3237371113342524 1.1432323436318301 8.8079117758933378 0.4806770000000000 0.2
144 1 6.3572969454004111 2.8403144583847708 4.0879477603207794 0.4859215000000000 0.2
145 1 0.0439382379413986 1.7729107350148405 1.4326475074830276 0.4706720000000000 0.2
146 1 2.9444345802196619 3.7434591138317872 1.2784791354168876 0.5096900000000000 0.2
147 1 6.5703798301770115 8.6647927003996905 7.5320244509837115 0.6143800000000000 0.2
148 1 5.1675974646603242 -0.0157113367343419 2.3573291942055601 0.5011050000000000 0.2
149 1 9.5378280234362656 6.6236555387010814 1.4015943306588550 0.5804450000000000 0.2
150 1 4.7832997774117239 9.0948975975785178 4.7375053708740147 0.3770395000000000 0.2
151 1 3.8629403428453508 2.9855072488154200 9.1171021785286914 0.7732599999999999 0.2
152 1 6.7556720051122259 0.4960632654856767 9.4455621717329592 0.4307570000000000 0.2
153 1 7.7461946178665162 0.2235837295596681 2.3382895336028571 0.3905040000000000 0.2
154 1 0.2457778513062229 9.5884137218034287 1.9942251483194164 0.6826100000000001 0.2
155 1 2.5494167828498755 5.4327002040812484 7.2686730591093198 0.5766050000000000 0.2
156 1 9.4313988495856158 0.7242024781710484 2.8031695801890009 0.5191050000000000 0.2
157 1 2.5988574632511119 2.5255560649124278 1.3279312241504504 0.4106890000000000 0.2
158 1 5.7661658647108744 6.8385294506840841 8.4558735410833989 0.4093745000000000 0.2
159 1 9.4320549926317181 5.2875151436576076 7.1319136188270171 0.4335330000000000 0.2
160 1 6.8231124694873522 8.4591027116448902 6.2993147131085543 0.6605200000000000 0.2
161 1 0.2863637018083499 2.7580274643527694 8.8958476471967209 0.4215420000000000 0.2
162 1 7.5080182335739183 6.8507170473988648 3.9323392386354459 0.6129550000000000 0.2
163 1 7.6318046221527984 4.4346220907620122 1.9757002802693917 0.4975395000000000 0.2
164 1 3.9272730692485549 3.7049230983759438 0.5970042742187042 0.5540900000000000 0.2
165 1 5.3885873350481717 2.5382330033731750 2.0814436071287807 0.4538265000000000 0.2
166 1 4.2730249035943935 5.9680036990800405 6.7012671673648896 0.4059420000000000 0.2
167 1 6.0699319401842944 2.5805208079165096 7.9314239977646830 0.4023925000000000 0.2
168 1 3.3093974315980206 7.5644133985347830 8.1432967084343062 0.4874140000000000 0.2
169 1 8.3751479098784785 3.4822132592710142 2.5876044923564105 0.3875285000000000 0.2
170 1 2.6989666785893367 9.0291183305163134 4.4146277722911877 0.6087600000000000 0.2
171 1 6.4837708669968110 3.9707890233551475 8.0186218782313645 0.4647605000000000 0.2
172 1 3.1773293197790378 5.8728174771228812 2.8522850552043808 0.3842370000000000 0.2
173 1 4.1759029587218626 0.6833145372957041 3.6583473093261567 0.4935495000000000 0.2
174 1 6.9826634733559558 0.3898972948538461 7.8707617258617057 0.6664150000000000 0.2
175 1 3.9357917248637979 8.0533987163285303 8.5529290633498309 0.4035855000000000 0.2
176 1 7.4359794603038019 7.6479038503768058 6.4881543487596218 0.3725095000000000 0.2
177 1 4.2079580815640867 1.0358042369911380 7.1323497489025645 0.4475955000000000 0.2
178 1 5.9085077195264990 0.7345186182917518 0.6867551321551436 0.4688440000000000 0.2
179 1 0.4897458928033146 2.3118496535756723 0.7394702250652516 0.3881465000000000 0.2
180 1 3.3146544591515683 0.5461665861528759 4.0677286249080140 0.4656750000000000 0.2
181 1 0.1438949113977920 7.7620058948657080 6.1266038932817839 0.3877605000000000 0.2
182 1 2.2734242796431121 8.0252326698416656 6.9359376256937582 0.7812600000000000 0.2
183 1 7.7107128742378084 5.2512201077362697 3.2863971931570659 0.3735800000000000 0.2
184 1 3.7725669495002947 7.0148528786372006 4.6829843221695091 0.4885015000000000 0.2
185 1 4.8988476090923587 4.0681627839241612 9.4239241983867625 0.7562449999999999 0.2
186 1 0.1450239006026650 4.1866100980405845 -0.0482542927585100 0.3917555000000000 0.2
187 1 0.1274222523454068 6.8742986599421307 5.6471173965512831 0.5989550000000000 0.2
188 1 1.8520258009315458 4.9216958299500106 2.0314330409898922 0.5107000000000000 0.2
189 1 8.8887669072843121 5.7028762930439161 4.6030665499338390 0.4564810000000000 0.2
190 1 4.7810299412053201 3.3840868041490322 3.8717353036507558 0.3762735000000000 0.2
191 1 8.6588218490645499 4.7552845647450663 1.3070136602401377 0.7685900000000000 0.2
192 1 3.1773167735238106 5.1219574484358699 2.8071124340432694 0.3672850000000000 0.2
193 1 0.7860920859904039 9.1584161894616365 0.7728779183468262 0.6089250000000000 0.2
194 1 8.3732926967897647 8.0404674590529570 5.1142740536719513 0.4995680000000000 0.2
195 1 7.4955398574209369 9.1892576476762784 3.0312268214057503 0.6020400000000000 0.2
196 1 9.2085288362577309 1.6224853474329026 2.3260468557514149 0.5104050000000000 0.2
197 1 8.3935753318202408 2.7644724831129883 1.9696119924684428 0.5590000000000001 0.2
198 1 6.1222818499764715 1.5900690204404737 1.2344903027005794 0.5690250000000000 0.2
199 1 4.2924639435546021 0.4496286170400733 2.6672498047729936 0.5291500000000000 0.2
200 1 7.4940042871714487 0.3477291396461278 1.2690797923591366 0.7091850000000000 0.2
201 1 9.3030908225910487 2.2467531813901127 6.6714834772388656 0.3922940000000000 0.2
202 1 3.4204850348358691 7.6907590311730791 9.1391444669058313 0.4542570000000000 0.2
203 1 8.1380338215522521 6.3104585870004888 3.2734686459678191 0.4367300000000000 0.2
204 1 5.2094896931369261 1.7380582863052949 9.2621783861696692 0.3620035000000000 0.2
205 1 7.7002813435334643 2.1617658052960751 6.2454965589223477 0.4203840000000000 0.2
206 1 6.4417728654760094 5.9724541552879220 4.4394312965985536 0.7108950000000001 0.2
207 1 9.1756860117943830 8.7740896146529597 8.8593860749813036 0.7976950000000000 0.2
208 1 6.7642598009824200 3.8597517997362223 4.5350315217876664 0.6991350000000000 0.2
209 1 2.1610999637993538 8.3443010457169109 1.6699607930575586 0.4522140000000000 0.2
210 1 5.8518660822970752 5.7666023280144074 8.3939286108152960 0.6662150000000000 0.2
211 1 8.5890880397060307 1.1762778821641668 8.7470568975541649 0.6427600000000000 0.2
212 1 6.0447986509303258 6.6717543120022818 7.4068554442133738 0.6864050000000000 0.2
213 1 9.4586782142006598 5.8141761610474934 4.0148221819547416 0.3643480000000000 0.2
214 1 5.1101254135811764 1.0304484550668749 7.0398932094998985 0.3931265000000000 0.2
215 1 2.1522821631820053 2.1393109358922051 0.6243823025849439 0.4988025000000000 0.2
216 1 3.2626827534278973 9.4688443337790353 8.6954415434056180 0.4258295000000000 0.2
217 1 0.8123561030062600 2.6610213158032390 1.7515692268431187 0.7249600000000000 0.2
218 1 2.4225379059311747 6.9670565919440461 8.8705451912717805 0.8004250000000001 0.2
219 1 3.7704749379641496 7.8788048822773558 5.5653231020801606 0.6742950000000000 0.2
220 1 3.6953245233451915 0.1018258257559344 6.7086388989270445 0.6171400000000000 0.2
221 1 3.1729535798568329 7.1057118390173848 7.0316009070011871 0.3789600000000000 0.2
222 1 6.4859839665040466 2.5728422282765737 4.9355537472082762 0.4103385000000000 0.2
223 1 2.8112491315326102 9.0509712928210373 1.4225235757522567 0.3791875000000000 0.2
224 1 2.5442717917796704 0.1209166825556762 3.4682327825964396 0.5900750000000000 0.2
225 1 2.5532584904064350 3.8332165135649952 6.0604730927763217 0.5634000000000000 0.2
226 1 0.3126996694388147 5.9962085673518777 0.7606465864155509 0.3972660000000000 0.2
227 1 1.0934641336463422 1.6625745636053042 5.0955354884992614 0.4406405000000000 0.2
228 1 4.9518013326578911 3.2864394543512607 1.9395331200880539 0.4212955000000000 0.2
229 1 5.1130415936083713 6.4822149937371556 8.0003543684097931 0.4342980000000000 0.2
230 1 5.8682605628957552 0.4189738772269376 9.4461841399917148 0.4468830000000000 0.2
231 1 1.8340645264613968 5.1699218941711456 3.0133287544984468 0.5014150000000001 0.2
232 1 0.9635604481155585 1.8732215049133427 4.0961506644118275 0.3919050000000000 0.2
233 1 8.3370049799042363 5.0037344866817950 4.5416670414096174 0.4279395000000000 0.2
234 1 4.0308791591227573 7.5532546156616647 0.3158352777084493 0.5157200000000000 0.2
235 1 2.5259995618085695 6.6019218824067796 2.4708302406604923 0.6631050000000001 0.2
236 1 4.3442715330378059 9.3955106522707226 1.9906371280209767 0.4266340000000000 0.2
237 1 4.0792573196436068 5.3142993743737810 4.1075685037791176 0.4714780000000000 0.2
238 1 0.9880058834496738 5.6788765037637976 3.0089373935502510 0.4133880000000000 0.2
239 1 1.0491419131324122 8.3238747288155128 8.8960048261909606 0.3964360000000000 0.2
240 1 3.9153390039147657 4.7518212781373057 5.2103681553675045 0.4584380000000000 0.2
241 1 7.2463422483812492 4.2326279187660107 0.2481265343324188 0.5325600000000000 0.2
242 1 7.2916215449124948 3.2140503685023143 0.8337659111329210 0.6176450000000000 0.2
243 1 0.8970877864104990 8.6378151154773484 3.9379480708590164 0.5469750000000000 0.2
244 1 7.5140990893495081 9.2555227962253319 7.0641181452432598 0.5109900000000001 0.2
245 1 0.0603551281927955 2.8952170403636845 7.1676130171248200 0.5107750000000000 0.2
246 1 5.4905691829544852 9.2624093561271881 -0.0170867609601679 0.4332370000000000 0.2
247 1 4.0668282423137700 9.2446397799028794 5.5399831805094930 0.6751100000000000 0.2
248 1 2.1721313853259820 0.9047525779659000 0.7688952928679277 0.6194900000000000 0.2
249 1 5.7576814956619016 6.5405012324302936 9.5670729193679964 0.7410700000000000 0.2
250 1 4.6630365491248007 5.9030435070130425 4.5779106324615064 0.4341765000000000 0.2
251 1 6.8352577734945443 0.5069327718805829 2.6854162576471383 0.6040600000000000 0.2
252 1 5.4365705872699106 5.9606504317783600 4.8619170534938574 0.3793940000000000 0.2
253 1 8.7063572211806228 5.9549390320566191 5.9765206764373646 0.3802975000000000 0.2
254 1 4.1291850315577614 9.1314950870559386 7.4310829164060417 0.4100760000000000 0.2
255 1 4.2566009345363023 9.1584801043691595 2.9900777615283900 0.4402720000000000 0.2
256 1 7.2934959673408049 6.4017757290407618 3.0031834946869580 0.4410130000000000 0.2
257 1 7.1846664285930224 8.1455388450741566 0.2238700867938693 0.7601800000000000 0.2
258 1 5.0328489742804594 2.7331565125458348 4.8557096199492378 0.3783790000000000 0.2
259 1 3.4375483808471992 6.8989017905361072 9.5825526233054479 0.4401500000000000 0.2
260 1 2.2189925549791214 3.6891142488662600 9.1419745864163495 0.3768320000000000 0.2
261 1 3.2708805045997824 1.0689895893935577 2.9899775902929724 0.6957000000000000 0.2
262 1 3.8459950442120685 7.1218763678398247 1.3851761641215521 0.4153870000000000 0.2
263 1 1.6513300888637161 7.3354702891226662 7.8539538495751469 0.4527635000000000 0.2
264 1 5.7763329839837043 0.5141300440600023 2.8265807750284178 0.4206925000000000 0.2
265 1 5.7952653134082830 2.9496562661020977 0.8075916143511810 0.3970845000000000 0.2
266 1 3.2588382718700135 0.9507469831157299 7.3541182526900135 0.4751475000000000 0.2
267 1 9.6656172423903080 0.5433689440024677 5.1111621765489064 0.3903970000000000 0.2
268 1 1.6881559640842148 1.5579715756112791 8.3299488595044444 0.4143280000000000 0.2
269 1 1.8901164524345975 2.1091739672144052 5.1135372275429871 0.4273745000000000 0.2
270 1 0.0345026001931745 5.6669028817100617 3.1362002280504906 0.5472300000000000 0.2
271 1 2.5048459671249570 3.1463097668679465 1.8668614012189153 0.4104315000000000 0.2
272 1 3.2675973599228922 0.3384001627515282 5.8358033680635852 0.3758865000000000 0.2
273 1 7.1598757534382740 2.8383918686678493 4.5632682645343818 0.3890110000000000 0.2
274 1 2.2519967000402850 8.8178108551896983 8.4636017769585621 0.4250455000000000 0.2
275 1 1.2074648740971281 5.6094665004513864 0.0978027832426564 0.4657100000000000 0.2
276 1 4.7033045664888027 5.8803438704179936 3.0341759185233825 0.4011220000000000 0.2
277 1 9.1379377581304055 8.2694333726933404 6.5476157733067346 0.5204299999999999 0.2
278 1 6.6231217545912866 9.3389258056980626 5.5846700768809372 0.4771200000000000 0.2
279 1 8.4863555391785717 0.7545638468039416 2.3639053356916024 0.5194950000000000 0.2
280 1 1.9872827972643825 2.8472025627557587 6.6556375622986641 0.7186650000000000 0.2
281 1 0.0454677746587100 8.6092437848932803 2.4379341177122558 0.4075430000000000 0.2
282 1 9.5176102692204889 4.9863395686648166 9.5331302302282861 0.4294830000000000 0.2
283 1 5.5312547217433874 4.7581235421237862 0.4879908427919877 0.3975925000000000 0.2
284 1 8.1125180929694345 7.3915306488084802 7.7299826320346083 0.4683260000000000 0.2
285 1 2.3867120175922079 5.7631298372428130 1.4745866298283501 0.6296650000000000 0.2
286 1 5.6522505296098826 1.3195137155430769 5.5509283959992084 0.5677900000000000 0.2
287 1 3.4755210235739877 5.4853405480168371 1.2493665109370582 0.5117850000000000 0.2
288 1 2.1495708037050183 4.5609494242296229 0.9326746051855666 0.6814950000000000 0.2
289 1 4.1388254853003739 8.4966627681406575 4.8157200002986400 0.3640450000000000 0.2
290 1 1.0365594224046559 3.1184672359154813 5.9664570438200766 0.4832135000000000 0.2
291 1 2.1576257594687163 9.0686054646756258 7.5813523862528900 0.4310715000000000 0.2
292 1 5.3463185570626095 2.9490657358484116 4.2017781070021618 0.3779315000000000 0.2
293 1 6.1187223137528060 7.6040979963892221 0.2552681074203518 0.4235115000000000 0.2
294 1 8.0081388094777886 4.3151495758127902 4.2630772088834235 0.3827835000000000 0.2
295 1 1.7773091590538459 0.7001300345920013 3.5647512414062725 0.3668520000000000 0.2
296 1 1.8005118460349261 0.9822965529958830 1.7765813136617399 0.4482195000000000 0.2
297 1 4.6178394592037808 3.8470483320653983 6.9158489744744083 0.4467520000000000 0.2
298 1 9.0355753367732241 3.9913314009121867 4.4470734359800685 0.4643865000000000 0.2
299 1 0.8763581877617935 5.0231427949567786 2.3714725522821927 0.5043250000000000 0.2
300 1 8.9009864214331493 7.9432732748961410 1.0717293427439496 0.3650950000000000 0.2
301 1 9.3083646003161764 2.6436673880432244 5.8956983717280735 0.4631000000000000 0.2
302 1 0.8134685525997936 4.7585166347160266 3.4931793146551180 0.6255800000000000 0.2
303 1 0.5515204528368838 7.8611520683565299 2.4484601940785131 0.4898265000000000 0.2
304 1 4.2045925890010887 7.2763208774156061 3.7860935684066552 0.5391899999999999 0.2
305 1 1.1227332911497452 8.6099335283061489 6.9344419883531883 0.5052550000000000 0.2
306 1 2.1046162983503849 2.4056504227072284 2.1170877574321465 0.4064860000000000 0.2
307 1 2.9039408159142059 2.5678306473370078 7.3592193366997876 0.4591620000000000 0.2
308 1 4.4436255725733433 1.9500971307863166 0.1252542502814141 0.5725300000000000 0.2
309 1 3.3145053395358040 5.4159159704748614 5.5633678127757094 0.3806120000000000 0.2
310 1 1.9536326965417803 8.7099557351498955 3.5460158180170702 0.5794000000000000 0.2
311 1 9.2718937146192406 0.8554260192390484 1.8651775245763056 0.3863345000000000 0.2
312 1 8.0406568386635282 0.5061535218399058 5.8271780346434436 0.4145930000000000 0.2
313 1 7.8988132213495765 1.2928635152822578 7.7454660863345790 0.5772150000000000 0.2
314 1 3.8207715352935492 3.5400902679552346 6.1512669269691420 0.6779450000000000 0.2
315 1 5.8835008023858544 3.8889937309218050 5.3535209597530988 0.4881620000000000 0.2
316 1 6.3175844988042646 8.0658537944227735 5.0821465075641896 0.7145100000000000 0.2
317 1 2.0895652107003344 8.8104900297992881 0.8775202327196542 0.4682660000000000 0.2
318 1 8.5054036994551456 7.4722443444277751 6.8128161295929743 0.5303150000000000 0.2
319 1 7.1711413410447236 2.2152265002524660 1.7990171730520128 0.7761400000000001 0.2
320 1 2.5484837822273239 0.4932873851472666 6.4929190010160749 0.6062400000000000 0.2
321 1 3.7534403867098929 6.5714440577801314 6.9069675046168264 0.3753820000000000 0.2
322 1 7.5558563355090058 9.3549837299019103 6.0244612396254107 0.5272950000000000 0.2
323 1 8.6154907010132398 1.2172032384717886 6.6813416179831417 0.7030050000000000 0.2
324 1 3.7489266926861120 2.2616662406429517 2.4897745751191378 0.5419200000000000 0.2
325 1 3.5332437718888547 7.9807271305170318 4.3241813033716783 0.5675249999999999 0.2
326 1 1.1088655201460338 7.0096972219331208 5.3848620418223350 0.4247185000000000 0.2
327 1 2.8027228058785720 0.9406383751364336 1.7856571139118711 0.5043700000000000 0.2
328 1 8.2971964580889015 3.8831274146887664 1.9525430583463907 0.3649925000000000 0.2
329 1 6.0150969968102164 0.4608417020902701 1.7542789519588551 0.6354100000000000 0.2
330 1 3.9253852083209959 8.7063286833311544 2.3031458994318501 0.4381000000000000 0.2
331 1 0.2161637059678063 0.4899228773167950 6.1807865573787319 0.6961050000000000 0.2
332 1 3.5244400021178066 1.3399026176499591 6.2502894251690879 0.7026900000000000 0.2
333 1 7.8195942488128800 8.9371432718160371 8.8495703974480513 0.5592650000000000 0.2
334 1 5.9512906265889081 1.6466000458877046 6.4765826046246442 0.4512590000000000 0.2
335 1 1.0274343872549947 8.8401626562653988 2.7595319010546051 0.6422000000000000 0.2
336 1 9.3119328869688296 7.6508726174358976 8.5409713369100650 0.3773650000000000 0.2
337 1 5.2177213823249771 7.5091512133013536 3.9342596314091161 0.4981090000000000 0.2
338 1 5.4898946140756717 2.7984851515365210 7.1880139549177535 0.4054400000000000 0.2
339 1 2.8892853558924090 2.3655436963581704 9.3999108845689481 0.4034610000000000 0.2
340 1 5.8687943148738606 9.6238365905974490 7.8396645120609598 0.4980320000000000 0.2
341 1 9.1820548755318274 9.5670985764947698 0.1975193814218250 0.3660605000000000 0.2
342 1 3.2219533905327271 0.2042518498106967 4.9694193627596936 0.5017350000000000 0.2
343 1 6.6304222106434247 3.4907556202669832 3.3591080887394735 0.5283350000000000 0.2
344 1 2.9567254568250045 4.0439423378220729 0.0755550018576882 0.5928300000000000 0.2
345 1 9.0894105056212755 3.0506800085812609 4.2074083027746436 0.5066750000000000 0.2
346 1 3.4863666005893856 5.4815172105807415 4.8182765092804374 0.3775205000000000 0.2
347 1 0.2930821508938791 3.1190523384284163 5.3674184069091471 0.4711355000000000 0.2