ITEM: TIMESTEP
8
ITEM: NUMBER OF ATOMS
1000
ITEM: BOX BOUNDS pp pp pp
0 9.61251
0 9.61251
0 9.61251
ITEM: ATOMS id type x y z radius Transparency
0 1 0.5742238845169836 3.1922297535699169 7.8960961407035821 0.4358495000000000 0.2
1 1 5.0222488724973049 1.0388134913968943 3.0913457018701118 0.5124900000000000 0.2
2 1 7.9314674847508533 2.9804666622095710 8.0483175196531178 0.4162825000000000 0.2
3 1 1.2280704529804978 5.4337874023942403 6.0059764244316947 0.5000000000000000 0.2
4 1 5.6309618458575432 8.8946404142165871 1.7238894499871664 0.5380900000000000 0.2
5 1 3.7448162470910344 0.2800107914878433 7.8188441953681194 0.5163150000000000 0.2
6 1 8.2509369999155719 3.0780304224218287 0.5480871819334651 0.3666925000000000 0.2
7 1 8.8208391482696840 0.5835943671176615 5.8385732113375877 0.3766435000000000 0.2
8 1 5.1750344116405742 9.5147941624772123 3.7132974465059996 0.7919650000000000 0.2
9 1 0.8480583477542157 1.4903100891540544 6.1227432353159719 0.4401755000000000 0.2
10 1 0.7765097944413223 5.9830551874544895 4.0220041046167632 0.6164200000000000 0.2
11 1 4.7588696836105697 6.9838772850769057 0.7264383873821366 0.4648655000000000 0.2
12 1 9.0858467461224013 7.8750969521116474 7.6764164682548932 0.5510300000000000 0.2
13 1 7.8600536589258745 6.5606598185921126 8.5785701337630904 0.7180050000000000 0.2
14 1 6.6678149082189995 5.7759585534596614 1.8513677341158830 0.4623000000000000 0.2
15 1 8.5482124494504106 1.2848009484080491 3.4381011705322293 0.6967300000000000 0.2
16 1 5.9519738063269392 7.7647695220437258 8.8076214052526751 0.6073950000000000 0.2
17 1 7.2097371411733695 7.7410868266321682 3.8227163842850342 0.3707300000000000 0.2
18 1 4.4086514915475279 8.4185292160246163 0.5521261368845459 0.4403200000000000 0.2
19 1 7.7178754986256495 7.6260285543368633 2.0043591950094686 0.3662995000000000 0.2
20 1 3.5104430348081412 3.2702344137329469 3.3949429447815862 0.7897999999999999 0.2
21 1 7.0593379415275965 1.2200383554037251 6.8493448479682080 0.6512000000000000 0.2
22 1 8.9144487882246768 6.6477421751887933 6.1870709582858474 0.3904030000000000 0.2
23 1 6.6840971116603578 7.4755175717112445 4.2749387747559613 0.3714140000000000 0.2
24 1 4.0765194691400257 6.4099671232575890 9.4296457159933862 0.3616105000000000 0.2
25 1 4.7597133795795248 3.0015662730463442 0.4520098174456688 0.5147250000000000 0.2
26 1 3.1043367307067777 3.7920941254476110 4.8398326084473240 0.7802550000000000 0.2
27 1 4.5286096258667357 7.9880528447165622 6.4078918717396567 0.4616785000000000 0.2
28 1 0.3037400247858010 2.1160536975639190 2.6360457799212287 0.4039595000000000 0.2
29 1 7.6850820920465512 4.1038011537029320 7.9119832128723244 0.7415450000000000 0.2
30 1 5.0857630904539262 7.6935353057356268 0.0181225528022344 0.5892150000000000 0.2
31 1 2.2210211261990942 7.8588286662954214 2.6856631379013969 0.6583500000000000 0.2
32 1 8.4410777536840769 1.4711156368341787 1.3012455839946886 0.7759100000000000 0.2
33 1 1.5199596542497789 1.6158598962324091 7.4784803121411096 0.4519360000000000 0.2
34 1 7.8107704756213296 1.9248293860297234 6.9505491195259426 0.3747375000000000 0.2
35 1 7.4949251610762957 8.8577989362074376 7.9127713650748062 0.4120415000000000 0.2
36 1 7.8702981899961060 8.9847680836618391 4.3768433744380770 0.5750800000000000 0.2
37 1 1.1436885072178067 0.4639994280584096 1.3943482802636289 0.5162500000000000 0.2
38 1 4.8137407162215027 0.4553659988388278 4.9325267820415393 0.5941850000000000 0.2
39 1 3.1811368687557109 4.4085570617081791 6.9208295213276019 0.6515550000000000 0.2
40 1 2.1130283671617360 0.7639882445702507 7.7861544119480870 0.6209500000000000 0.2
41 1 0.5105928677373170 4.4694627954791448 8.1313399913076339 0.4182075000000000 0.2
42 1 8.7357220642150768 5.0771480154349202 9.0303055440767093 0.4843040000000000 0.2
43 1 0.0799024187393782 8.9843021107599128 7.4389454965386550 0.7351350000000000 0.2
44 1 2.5872095565783360 6.5820377145456357 3.5330138972356355 0.3681760000000000 0.2
45 1 9.6025038412689803 5.5646881391731666 1.4595805848965726 0.4605120000000000 0.2
46 1 5.2644986557800992 7.7654725600466188 1.7792398428910405 0.5314000000000000 0.2
47 1 6.6323702386908039 3.4931905067781011 0.1527044352094947 0.3917005000000000 0.2
48 1 9.0710258243194470 3.3031779904002341 5.1195798465380316 0.3983635000000000 0.2
49 1 9.4969320866157840 5.6840057305001910 8.9323057773139674 0.4824545000000000 0.2
50 1 2.9148702330311314 8.9598189535277939 0.5966528655172828 0.4489110000000000 0.2
51 1 1.8262164043209916 1.3783376483487000 4.3052779768334810 0.6179400000000000 0.2
52 1 0.9099745606347434 6.5048132142779780 1.3137878377632342 0.3742770000000000 0.2
53 1 9.1893480255929862 7.3372274001034352 4.6523787487896442 0.6348300000000000 0.2
54 1 3.3813927259756542 6.0550616824553307 9.3208948161360947 0.4236810000000000 0.2
55 1 1.1479375023128671 5.4692602542271223 1.2302945487639225 0.6781700000000001 0.2
56 1 5.0990486301918008 9.4331073423272400 5.7033117282569448 0.3870130000000000 0.2
57 1 3.2356000271479561 4.9647760818990099 8.8064372046556088 0.6346650000000000 0.2
58 1 0.6291016365708471 6.3845887556579388 3.1090723258239588 0.3912565000000000 0.2
59 1 3.7993025384500503 3.3297778858293627 7.6034332145442152 0.7547750000000000 0.2
60 1 6.8855199294331904 5.0166179686320902 5.7820556921944570 0.3948225000000000 0.2
61 1 6.7131626822076447 4.1586414951779975 2.5879364834235585 0.4921890000000000 0.2
62 1 6.0047733520862581 5.5864070938013519 5.4634973032758962 0.4629365000000000 0.2
63 1 6.8388163038324636 0.9085633279245638 8.7441913632252906 0.3616485000000000 0.2
64 1 9.2535112290779757 8.1552309733052795 0.3081139838511298 0.4217555000000000 0.2
65 1 6.9352031216232586 2.9727113600764201 8.0525891332739281 0.5792300000000000 0.2
66 1 3.7333737907029536 4.7933085647108937 3.3262064036277135 0.4498485000000000 0.2
67 1 3.8225468452555944 7.0582597802909186 7.5012786254698556 0.4212635000000000 0.2
68 1 4.5228613730918150 1.3519290688432155 0.9774035697140033 0.4587420000000000 0.2
69 1 4.4443872779623543 8.3512067133257517 3.6721202547665981 0.5822300000000000 0.2
70 1 7.4207760555596076 4.6490047914468606 2.8405553572109170 0.4044480000000000 0.2
71 1 9.3855598947264625 1.5979239852153864 8.1719036167482475 0.3764255000000000 0.2
72 1 8.5144189144952005 2.7798794825498923 8.5930300947732121 0.3927705000000000 0.2
73 1 7.1022453973106465 6.2352860882174941 6.8171176943502312 0.5562500000000000 0.2
74 1 0.0691873683392150 0.7202588311220235 0.8107896230449969 0.7324700000000000 0.2
75 1 2.1575886612862778 1.2739730623535197 3.2974503722971664 0.4321290000000000 0.2
76 1 2.7748055078543850 5.4931352389440056 3.8911878033449687 0.7884350000000000 0.2
77 1 6.2815682573458131 4.2662696289968487 0.6309410567165576 0.4313700000000000 0.2
78 1 8.8751742209843556 5.8792298811528152 0.3573629909581585 0.7426700000000001 0.2
79 1 1.2613826287095400 9.5038730806604033 7.5399136627908288 0.5587299999999999 0.2
80 1 9.2199097303152957 8.7306926192635643 4.3109752263721433 0.7997950000000000 0.2
81 1 2.9513167022035938 8.5119497469803402 2.0862832334736274 0.4579850000000000 0.2
82 1 8.6022118484191186 0.4509480669802797 4.7567177647046490 0.7346549999999999 0.2
83 1 2.3995785664711220 0.4426095351109488 5.3835353380337443 0.4215560000000000 0.2
84 1 0.8477417886483992 6.7960041052057596 7.7440807641624563 0.4607780000000000 0.2
85 1 1.5343561199652120 4.2144680627363700 2.7657267489775470 0.4999980000000000 0.2
86 1 2.9393233616621863 2.6826575522504319 5.1407746892505992 0.3806465000000000 0.2
87 1 2.0366762654388175 2.3641336660215719 7.7681120739231293 0.4997205000000000 0.2
88 1 1.0576056709628388 9.4557786285787646 6.5055234725758488 0.4046105000000000 0.2
89 1 5.3145231021090158 7.3234143649184595 4.9663218492145722 0.5063350000000000 0.2
90 1 8.3996665651504454 8.8588504290257166 0.6530682628467021 0.7369250000000001 0.2
91 1 2.5102184979296216 3.4695005525429088 7.6154850902010098 0.5393500000000000 0.2
92 1 2.6076631566014190 4.5353222842201362 7.9357006779169614 0.5210050000000001 0.2
93 1 3.5058099817891728 4.8098895298871200 4.4785165490921042 0.3715265000000000 0.2
94 1 8.3339550031103204 6.8532573568631845 9.6518459819999052 0.4147785000000000 0.2
95 1 5.1918399785811120 5.3534730974870710 9.3284302174259235 0.5593250000000000 0.2
96 1 1.5603629607912242 0.9672291682411482 2.7415132276465184 0.4392310000000000 0.2
97 1 0.2891547062583211 5.1589292951214709 6.2635402142197387 0.4929155000000000 0.2
98 1 2.7436557205339787 2.2326758034775289 3.0006468622576410 0.5589350000000000 0.2
99 1 0.2560359887318154 2.3291222809096737 8.0878583879770858 0.5029200000000000 0.2
100 1 1.3940564859650291 2.1777040032892363 3.0749311243188653 0.7714299999999999 0.2
101 1 7.6390632403587642 3.2627009491073893 9.1366178955787181 0.7448150000000000 0.2
102 1 8.7110869254099175 2.2679170276183913 7.6280699063718398 0.7168150000000000 0.2
103 1 5.8301112777282134 3.5037318704618894 0.2142239966352845 0.4075345000000000 0.2
104 1 0.7041505155617884 6.0451365899956242 9.0337118053077852 0.4109360000000000 0.2
105 1 6.1556824308942710 8.7458131912320134 4.1685607142432026 0.4319070000000000 0.2
106 1 3.5053730502654066 1.6549960176860676 9.0566873807773867 0.6148200000000000 0.2
107 1 1.6668507363595115 0.1401882580551878 5.8829102191938469 0.5135600000000000 0.2
108 1 9.4271332311199565 0.5476988783701564 3.8262323368807567 0.5124750000000000 0.2
109 1 6.8160946204026756 7.5806972056210364 7.2018370014397846 0.4586710000000000 0.2
110 1 2.5681173301321607 2.1823329659042803 5.7946156374587128 0.5212350000000000 0.2
111 1 9.3996634958259939 9.2529004934837449 1.0452391540941439 0.4070420000000000 0.2
112 1 8.7482706062476066 0.1423100236247304 1.5030586438654314 0.5330650000000000 0.2
113 1 7.0685969374494757 0.6218690472589186 5.8791798910252453 0.4884800000000000 0.2
114 1 8.1913736050449248 1.8746714656420638 2.4720324712386219 0.4865350000000000 0.2
115 1 7.6124743229075742 1.0993703524910190 2.1669733299795766 0.4578045000000000 0.2
116 1 6.1869631450811005 8.2097044105437451 2.3712930377903270 0.3993510000000000 0.2
117 1 5.4085618416837429 6.6096045187383146 4.2704481905554585 0.4889610000000000 0.2
118 1 6.4979022559821296 5.9001057439267370 0.9528019495367537 0.4600195000000000 0.2
119 1 3.7797734818752105 8.8721322313304718 1.2757821058752661 0.6193600000000000 0.2
120 1 4.1068450030603083 5.4288129044782645 9.4308009504042491 0.5329250000000000 0.2
121 1 0.5280245823245187 9.5374768801217531 4.0069952444624972 0.4515735000000000 0.2
122 1 5.6811555470270045 1.9892283572370530 4.4737084346829263 0.6554050000000000 0.2
123 1 1.9814695470243280 4.7304445161508655 9.1935876658256799 0.6981200000000000 0.2
124 1 1.5902797870737071 5.1938923365396681 6.8604778906708761 0.3930615000000000 0.2
125 1 4.2105323466025091 6.3681424473873003 5.0577296582999551 0.3694375000000000 0.2
126 1 6.0858474840711798 3.9842353102066306 7.2725030860152327 0.3683290000000000 0.2
127 1 4.6681242795983007 6.1019245371024446 0.3528095388074049 0.4933850000000000 0.2
128 1 5.2562331432927456 2.5550672690698302 7.8994134816624122 0.4001935000000000 0.2
129 1 6.7241840325908955 6.9461718396333598 0.8100844489944864 0.6196250000000000 0.2
130 1 7.9043047254108485 6.7100267865595562 2.5453905845791911 0.3728560000000000 0.2
131 1 6.4716510222095129 0.6076205619232424 4.9086662419428659 0.6510100000000000 0.2
132 1 1.2772450338471117 2.5201652900298686 0.6029196787851887 0.4206400000000000 0.2
133 1 7.3410062832788299 7.5101663175441740 1.3649555674163631 0.3834890000000000 0.2
134 1 0.8801369951854661 6.0406298138223811 5.1949359293560304 0.5621200000000000 0.2
135 1 1.5389979824434432 1.7708135170337387 1.9512050554722680 0.3754805000000000 0.2
136 1 9.2826817054587316 9.3182456078194562 5.4690761221227921 0.5002350000000000 0.2
137 1 4.9537608244766540 6.5139278826971232 5.0879049504064309 0.3880280000000000 0.2
138 1 4.5055352893997442 4.9311337413278071 0.8779212489533382 0.7032150000000000 0.2
139 1 6.5157378621749338 7.1354348505761926 6.1691329035865747 0.6983700000000000 0.2
140 1 6.6525223574111605 6.7622526113843469 8.3567991741276852 0.4542710000000000 0.2
141 1 8.5287314305622246 0.4313063390021370 0.5800383235781835 0.4566025000000000 0.2
142 1 6.2023299578546345 2.6703591846438992 2.2347211674598819 0.3743885000000000 0.2
143 1 2.3211403227417322 1.1291226329811821 8.8056144270761614 0.4806770000000000 0.2
144 1 6.3423431179866281 2.8327987395598475 4.0812785070916542 0.4859215000000000 0.2
145 1 0.0709586214214955 1.7836086427208910 1.3818345771851555 0.4706720000000000 0.2
146 1 2.9378736864968920 3.7496580922043203 1.2679610739361324 0.5096900000000000 0.2
147 1 6.5620060358424901 8.6600425881427920 7.5329965925416111 0.6143800000000000 0.2
148 1 5.1489524520517227 -0.0138203806307361 2.3860782879302875 0.5011050000000000 0.2
149 1 9.5313270032957682 6.6036358327641862 1.4292748838685743 0.5804450000000000 0.2
150 1 4.7554227241769906 9.0180457109327801 4.7234273364702526 0.3770395000000000 0.2
151 1 3.8585054042830005 2.9971799806291908 9.0947980760143476 0.7732599999999999 0.2
152 1 6.7600167753129021 0.5135124207442061 9.4266480835680184 0.4307570000000000 0.2
153 1 7.7569459488836427 0.1763613049456052 2.3497171105607015 0.3905040000000000 0.2
154 1 0.2359157233434066 9.5665081345562086 1.9887508586353442 0.6826100000000001 0.2
155 1 2.5638618763858254 5.4113831664021834 7.2739662871876796 0.5766050000000000 0.2
156 1 9.4242150281005284 0.7224635905836312 2.8095093943185216 0.5191050000000000 0.2
157 1 2.5649727392282715 2.5129604989504259 1.3121341343604871 0.4106890000000000 0.2
158 1 5.7788335948211902 6.8328469221029176 8.4393922195679032 0.4093745000000000 0.2
159 1 9.4180845666056925 5.2468619475230520 7.0785355938507859 0.4335330000000000 0.2
160 1 6.8107851809820072 8.4560319175704368 6.2986786241006403 0.6605200000000000 0.2
161 1 0.2788822071313791 2.7545482655820615 8.9090754791497648 0.4215420000000000 0.2
162 1 7.5121157677321291 6.8100574979483461 3.9245909120152094 0.6129550000000000 0.2
163 1 7.6149282380819789 4.4151778477115347 1.9911074080762661 0.4975395000000000 0.2
164 1 3.9417095867915859 3.7272770504663946 0.5885059963331944 0.5540900000000000 0.2
165 1 5.4021660741043291 2.5512265566107195 2.0558477269736168 0.4538265000000000 0.2
166 1 4.2896185101115432 5.9399437979728651 6.7048536726057026 0.4059420000000000 0.2
167 1 6.0593628337513179 2.5684272823176535 7.8705360274370051 0.4023925000000000 0.2
168 1 3.2927958458228841 7.5125329763094797 8.0870280448634482 0.4874140000000000 0.2
169 1 8.3920250987753988 3.4418418670385660 2.6373584643123000 0.3875285000000000 0.2
170 1 2.6869699028987015 9.0340868928253624 4.4203500379684000 0.6087600000000000 0.2
171 1 6.4586377672493160 3.9031022704321092 8.0276758127893775 0.4647605000000000 0.2
172 1 3.2177080681154937 5.8856999014588229 2.8749668109232505 0.3842370000000000 0.2
173 1 4.1433719200244035 0.6675219647737101 3.6606452043275377 0.4935495000000000 0.2
174 1 6.9760540346201960 0.3845766274056737 7.8649045601347938 0.6664150000000000 0.2
175 1 3.8803111777698174 8.0437956930735233 8.5197662342438161 0.4035855000000000 0.2
176 1 7.4062597398421879 7.6345405233685604 6.4933204226877441 0.3725095000000000 0.2
177 1 4.1435391860567021 1.0182348429912906 7.1685607585303863 0.4475955000000000 0.2
178 1 5.8943999748557987 0.7208162187314406 0.6633140598829894 0.4688440000000000 0.2
179 1 0.4721501416355410 2.3078631928942301 0.7777049328724331 0.3881465000000000 0.2
180 1 3.2880307216032443 0.5941486968458621 4.0890579415791910 0.4656750000000000 0.2
181 1 0.1689431850177856 7.7567655101575754 6.1107966973524492 0.3877605000000000 0.2
182 1 2.2716822768597336 8.0266163308362177 6.9315804193615893 0.7812600000000000 0.2
183 1 7.7345142273793206 5.2027304452613281 3.2885992575828764 0.3735800000000000 0.2
184 1 3.7376159975916039 6.9747339624225040 4.6690305335987565 0.4885015000000000 0.2
185 1 4.9110228300979655 4.0685561477787946 9.3849585018845438 0.7562449999999999 0.2
186 1 0.1250701061499862 4.2005132488299708 0.0085541817759128 0.3917555000000000 0.2
187 1 0.1205794638093880 6.8749495974395121 5.6606710367189041 0.5989550000000000 0.2
188 1 1.8330567906219892 4.9291451904601402 2.0383972877938179 0.5107000000000000 0.2
189 1 8.8839587765157173 5.6749800053271029 4.6416461792179309 0.4564810000000000 0.2
190 1 4.7780393498284601 3.3785267339763414 3.8384786641763560 0.3762735000000000 0.2
191 1 8.6385136107557638 4.7373156342901037 1.3189122539521765 0.7685900000000000 0.2
192 1 3.1622749427311199 5.1366512340020174 2.8421589663759237 0.3672850000000000 0.2
193 1 0.7768779215598414 9.1872382121580909 0.8105061482590727 0.6089250000000000 0.2
194 1 8.3786597922230097 8.0131591803878681 5.1030956096479718 0.4995680000000000 0.2
195 1 7.4988532744910072 9.1218268021997719 3.0385237845903834 0.6020400000000000 0.2
196 1 9.1853231794521104 1.6083183954270004 2.3413872904292741 0.5104050000000000 0.2
197 1 8.3533746928586190 2.7751149893790426 1.9647010543206034 0.5590000000000001 0.2
198 1 6.1168247080959990 1.5709053359977261 1.2159317889263566 0.5690250000000000 0.2
199 1 4.2706361801425485 0.4529807756489806 2.6683131709681818 0.5291500000000000 0.2
200 1 7.4866397374696545 0.3331835680693835 1.2952936709679523 0.7091850000000000 0.2
201 1 9.2611841492957634 2.2330350082547676 6.6649211969187032 0.3922940000000000 0.2
202 1 3.4223511400971658 7.6714186902787791 9.1469487980256883 0.4542570000000000 0.2
203 1 8.0919070173788530 6.2415801441209835 3.2582629282111841 0.4367300000000000 0.2
204 1 5.1845635440103273 1.7175849983769553 9.2256896249023619 0.3620035000000000 0.2
205 1 7.5964338610506514 2.2409602579651478 6.2442698914151338 0.4203840000000000 0.2
206 1 6.4325876915193421 5.9652867300479935 4.4360136417131759 0.7108950000000001 0.2
207 1 9.1593021505837662 8.7427443336922011 8.8558056514339718 0.7976950000000000 0.2
208 1 6.7471873805299172 3.8542701995806601 4.5252270845227445 0.6991350000000000 0.2
209 1 2.1825296413382032 8.2787738276781599 1.6579132202135674 0.4522140000000000 0.2
210 1 5.8656021252589294 5.7619567807804710 8.3883963035730744 0.6662150000000000 0.2
211 1 8.5809587762195658 1.1908770775427540 8.7554038655541522 0.6427600000000000 0.2
212 1 6.0538536180366762 6.6725230480293911 7.3899403434872157 0.6864050000000000 0.2
213 1 9.4030976324427442 5.8487883617776681 3.9920381796885853 0.3643480000000000 0.2
214 1 5.0929668592147204 1.0276387579535722 7.0660670101813672 0.3931265000000000 0.2
215 1 2.1232356601045197 2.0859942366041331 0.6160710151080371 0.4988025000000000 0.2
216 1 3.2583346984462840 9.4177010505814973 8.7311347885467754 0.4258295000000000 0.2
217 1 0.8147412233721606 2.6532257091100520 1.7792656556729891 0.7249600000000000 0.2
218 1 2.4276443723842189 6.9518734809839371 8.8592653962122085 0.8004250000000001 0.2
219 1 3.7682888216917303 7.8768976999552232 5.5539525246613950 0.6742950000000000 0.2
220 1 3.6907331034341628 0.1176349758033288 6.6975993956538051 0.6171400000000000 0.2
221 1 3.1842865851813511 7.1009814066636592 7.0202382094361955 0.3789600000000000 0.2
222 1 6.4750901890154680 2.5435731548684992 4.9193926168950863 0.4103385000000000 0.2
223 1 2.7846862877183840 8.9852822357428082 1.4152864331379227 0.3791875000000000 0.2
224 1 2.5531753615972885 0.1437319973011771 3.4712844989315328 0.5900750000000000 0.2
225 1 2.5422000811805860 3.8369547048159931 6.0597824109070615 0.5634000000000000 0.2
226 1 0.3148055611059056 5.9847416002109304 0.7833763244525660 0.3972660000000000 0.2
227 1 1.1143537375444905 1.6271384751694487 5.0763540389792858 0.4406405000000000 0.2
228 1 4.9285663791858179 3.2775812352774829 1.9347464718529310 0.4212955000000000 0.2
229 1 5.1180269838282610 6.4759652169108843 7.9817886555563922 0.4342980000000000 0.2
230 1 5.8575092908089958 0.4369001246124234 9.3946168047630714 0.4468830000000000 0.2
231 1 1.7733753551267490 5.1543074547707075 3.0234255755434707 0.5014150000000001 0.2
232 1 0.9516843420328243 1.8391022440390699 4.0963419083768642 0.3919050000000000 0.2
233 1 8.3559403826431637 4.9703948884367586 4.5535215289822419 0.4279395000000000 0.2
234 1 4.0398591405384252 7.5258396970570001 0.3345403121085751 0.5157200000000000 0.2
235 1 2.5408667186836520 6.5905115598170347 2.4972396161329091 0.6631050000000001 0.2
236 1 4.3302655806504760 9.3722963912604911 2.0117163199630177 0.4266340000000000 0.2
237 1 4.0772025829245599 5.3197943058493422 4.0924849243853583 0.4714780000000000 0.2
238 1 1.0028967463313228 5.6537762241209082 3.0207806110095232 0.4133880000000000 0.2
239 1 1.0640771120497512 8.2936834233662697 8.8923578970045867 0.3964360000000000 0.2
240 1 3.9193944621129493 4.7333884147697196 5.1942358934270940 0.4584380000000000 0.2
241 1 7.2083957553485920 4.2079814713420509 0.2677515429228685 0.5325600000000000 0.2
242 1 7.3037250139296344 3.1882535838121502 0.8425947008230389 0.6176450000000000 0.2
243 1 0.8982347688243599 8.6121146784764893 3.9452485515908746 0.5469750000000000 0.2
244 1 7.4702470588487913 9.2025360010794977 7.0562030958104325 0.5109900000000001 0.2
245 1 0.0714333422382805 2.8579688103461272 7.1665400292174573 0.5107750000000000 0.2
246 1 5.4671941605737251 9.2223119885804650 0.0323218757323395 0.4332370000000000 0.2
247 1 4.0559434744541241 9.2430041050070617 5.5300949421441494 0.6751100000000000 0.2
248 1 2.1657568838594830 0.9143115596531014 0.7130660466881963 0.6194900000000000 0.2
249 1 5.7483092696806217 6.5412518834144953 9.5567054131377240 0.7410700000000000 0.2
250 1 4.6243776240139676 5.8672439742717444 4.5790915655210975 0.4341765000000000 0.2
251 1 6.8581681279657420 0.5087318967816691 2.6390754011870858 0.6040600000000000 0.2
252 1 5.4191628740859201 5.9538561118575419 4.8395977614198715 0.3793940000000000 0.2
253 1 8.6907219227199199 5.9133225563189278 5.9578789533486276 0.3802975000000000 0.2
254 1 4.1069279633231695 9.1187222047890923 7.4592318281595000 0.4100760000000000 0.2
255 1 4.2436618164924589 9.1519437734419302 2.9921576819290228 0.4402720000000000 0.2
256 1 7.2665735086183885 6.3819180493804843 2.9932557236599209 0.4410130000000000 0.2
257 1 7.1675071821512422 8.1201450913923043 0.2311925368017877 0.7601800000000000 0.2
258 1 5.0121901824730877 2.7402861269983405 4.8120699998804417 0.3783790000000000 0.2
259 1 3.4415978054479792 6.8817811444569248 9.5710765414385417 0.4401500000000000 0.2
260 1 2.2207120827964268 3.6819990917527026 9.2055614782403321 0.3768320000000000 0.2
261 1 3.2680695656644176 1.0929890047284985 2.9771540797778568 0.6957000000000000 0.2
262 1 3.9925061600492957 7.1428410635680812 1.2107169439719436 0.4153870000000000 0.2
263 1 1.6860684923399871 7.3249693326984753 7.8237091733666215 0.4527635000000000 0.2
264 1 5.7955269442940676 0.5005626195617876 2.7954226018560573 0.4206925000000000 0.2
265 1 5.7620661816829459 2.9262571316337214 0.8119900556841527 0.3970845000000000 0.2
266 1 3.2336287833065702 0.9667455515645464 7.3178988858793321 0.4751475000000000 0.2
267 1 9.6601760367894212 0.5434701005771608 5.1288045716688524 0.3903970000000000 0.2
268 1 1.6808806501749909 1.5358747019155550 8.3285264288680025 0.4143280000000000 0.2
269 1 1.8899774182793050 2.1143390341250177 5.1325617898052389 0.4273745000000000 0.2
270 1 0.0482989665075558 5.6475626106583094 3.1378461831006548 0.5472300000000000 0.2
271 1 2.5086708838017291 3.1552293957297128 1.8251253469935069 0.4104315000000000 0.2
272 1 3.2649698937002203 0.3911817491041732 5.8422483023299883 0.3758865000000000 0.2
273 1 7.2259425655053935 2.7676101096530283 4.6274132774269354 0.3890110000000000 0.2
274 1 2.2372296781003276 8.8211735508464528 8.4667154182783673 0.4250455000000000 0.2
275 1 1.2224586585892201 5.6238573565115697 0.0906312730253750 0.4657100000000000 0.2
276 1 4.6834699972420504 5.8881365784895427 3.0508023574590468 0.4011220000000000 0.2
277 1 9.1222957231310691 8.2289174160163228 6.5212307449764619 0.5204299999999999 0.2
278 1 6.5882938352387184 9.3292138806944518 5.6002352474349113 0.4771200000000000 0.2
279 1 8.4926061934000572 0.7130005701333131 2.3503811218092840 0.5194950000000000 0.2
280 1 1.9722253872839794 2.8523023421426634 6.6513435213568606 0.7186650000000000 0.2
281 1 0.0645473973857105 8.5809959626451917 2.4223890510136412 0.4075430000000000 0.2
282 1 9.5113641953806329 4.9836530771784160 9.5169877324281025 0.4294830000000000 0.2
283 1 5.5148265161065684 4.7733623035592316 0.4667646982298290 0.3975925000000000 0.2
284 1 8.1225704153517473 7.3725051930220040 7.7516753676870920 0.4683260000000000 0.2
285 1 2.3985247812724211 5.7636234628799414 1.4765801665431963 0.6296650000000000 0.2
286 1 5.6416754092897499 1.2689962171108795 5.5125680725070785 0.5677900000000000 0.2
287 1 3.4737191171869628 5.4451712587329943 1.2620063380357192 0.5117850000000000 0.2
288 1 2.1425838280157867 4.5750236531713000 0.9428812930790333 0.6814950000000000 0.2
289 1 4.1361934065400474 8.5184004877815660 4.7893987562746450 0.3640450000000000 0.2
290 1 1.0373417627976305 3.1089658058400946 5.9404580149721093 0.4832135000000000 0.2
291 1 2.1716797096645730 9.0690411126381125 7.6107745936836437 0.4310715000000000 0.2
292 1 5.3900973587066039 2.9398837006902454 4.1875499154948805 0.3779315000000000 0.2
293 1 6.0987569641635826 7.6107116502554328 0.2799404173640216 0.4235115000000000 0.2
294 1 7.9663015666096610 4.3087824129180436 4.2919363018279029 0.3827835000000000 0.2
295 1 1.7186298824747002 0.6241543803338091 3.4545116725837515 0.3668520000000000 0.2
296 1 1.8925782788518273 0.9609436786833681 1.7443691393046781 0.4482195000000000 0.2
297 1 4.6427094206403341 3.8389797958937364 6.8872862078686437 0.4467520000000000 0.2
298 1 9.0160886367726683 3.9728006168200141 4.4513778800328501 0.4643865000000000 0.2
299 1 0.8700880331327117 4.9904389171571326 2.4000876558605690 0.5043250000000000 0.2
300 1 8.8984854945547429 7.9371777333785882 1.0009804149466752 0.3650950000000000 0.2
301 1 9.2643038114234013 2.6283870488849472 5.9062969557252876 0.4631000000000000 0.2
302 1 0.8020724514072169 4.7582595136918684 3.5093331581292109 0.6255800000000000 0.2
303 1 0.5723458205206339 7.8420661452262959 2.4615602259445311 0.4898265000000000 0.2
304 1 4.1985141862985511 7.2641371970833770 3.7969652538268690 0.5391899999999999 0.2
305 1 1.1384123378564799 8.6346436795214085 6.8949493516102018 0.5052550000000000 0.2
306 1 2.0611404856135405 2.5008928232501813 2.1355955201052619 0.4064860000000000 0.2
307 1 2.8818432887709204 2.5727950281044998 7.3466142642066137 0.4591620000000000 0.2
308 1 4.4354584540036806 1.9594344919194346 0.1176172168245745 0.5725300000000000 0.2
309 1 3.4400131484792409 5.3393248708315850 5.5718238039506298 0.3806120000000000 0.2
310 1 1.9492417087701732 8.7019028464771662 3.5502053174974062 0.5794000000000000 0.2
311 1 9.2469326059752124 0.8367727996350652 1.8583400835312651 0.3863345000000000 0.2
312 1 8.0024931268573756 0.5625488948087641 5.8326506030967318 0.4145930000000000 0.2
313 1 7.8864688175083977 1.2786762599833512 7.7562188505648164 0.5772150000000000 0.2
314 1 3.8111583287834168 3.5411611817752768 6.1343547292360849 0.6779450000000000 0.2
315 1 5.8879523641593501 3.8765761178150342 5.3466222755434947 0.4881620000000000 0.2
316 1 6.2783039752132570 8.0637553363350314 5.0931442922082306 0.7145100000000000 0.2
317 1 2.0729897717243411 8.8491221468391963 0.9435639533015991 0.4682660000000000 0.2
318 1 8.4823733208026209 7.4519075042954563 6.8230231090782008 0.5303150000000000 0.2
319 1 7.1599094603649105 2.1907947219287305 1.8055739295760775 0.7761400000000001 0.2
320 1 2.5491036678963841 0.5175542286670015 6.5098075802258180 0.6062400000000000 0.2
321 1 3.7534189749284512 6.5521363118668114 6.8859302792573738 0.3753820000000000 0.2
322 1 7.5456170458140068 9.3505201426272073 6.0312780777493167 0.5272950000000000 0.2
323 1 8.5914668246664068 1.2080570911056507 6.6897935244285973 0.7030050000000000 0.2
324 1 3.7251515873016809 2.2908487307577969 2.5050194078508685 0.5419200000000000 0.2
325 1 3.5363230534092276 7.9685637458590657 4.3355864101996744 0.5675249999999999 0.2
326 1 1.1044067472172929 6.9816739982558218 5.3971211657060936 0.4247185000000000 0.2
327 1 2.8426890485659975 0.9650581014343431 1.8132848942273574 0.5043700000000000 0.2
328 1 8.2781921201609343 3.8645565824972312 1.9468593411562471 0.3649925000000000 0.2
329 1 5.9968859865968929 0.4831489974956779 1.7477740690441474 0.6354100000000000 0.2
330 1 3.9078743293888047 8.6763032693868389 2.3072135256976178 0.4381000000000000 0.2
331 1 0.2127340125268667 0.4808531369981952 6.2013792560462262 0.6961050000000000 0.2
332 1 3.5156216765475365 1.3635219427106984 6.2450992048526546 0.7026900000000000 0.2
333 1 7.7833698833413818 8.8933407151198534 8.8411290993247373 0.5592650000000000 0.2
334 1 5.9162777294621920 1.6253248994410465 6.4301640852605972 0.4512590000000000 0.2
335 1 1.0248266686092835 8.8356841149258099 2.7627112503837141 0.6422000000000000 0.2
336 1 9.3166869048169509 7.6214174588901145 8.5406620468311250 0.3773650000000000 0.2
337 1 5.2012512321385120 7.5108738836920699 3.9247378266989230 0.4981090000000000 0.2
338 1 5.4360510789878456 2.7157159127801065 7.0842390737837260 0.4054400000000000 0.2
339 1 2.8754706155329148 2.4003008869276279 9.3484900724592652 0.4034610000000000 0.2
340 1 5.8477956029476292 9.5588674824743354 7.8224811622578025 0.4980320000000000 0.2
341 1 9.1593126226607673 9.5358970767328568 0.2274089251403180 0.3660605000000000 0.2
342 1 3.2034863746641071 0.2288806999642290 4.9813173816493279 0.5017350000000000 0.2
343 1 6.6346929977338736 3.4912173416700405 3.3576689019604178 0.5283350000000000 0.2
344 1 2.9596269011508602 4.0593327535307226 0.0964226632862820 0.5928300000000000 0.2
345 1 9.0829938950813158 3.0306446983007334 4.2258167018726809 0.5066750000000000 0.2
346 1 3.4754196221706111 5.4748529898575233 4.8258535093070174 0.3775205000000000 0.2
347 1 0.2664344229763411 3.0924826296932335 5.3774714478771539 0.4711355000000000 0.2