ITEM: TIMESTEP
1
ITEM: NUMBER OF ATOMS
1000
ITEM: BOX BOUNDS pp pp pp
0 9.73066
0 9.73066
0 9.73066
ITEM: ATOMS id type x y z radius Transparency
0 1 0.6398330426082320 3.2080780515917104 7.9561089541665782 0.4358495000000000 0.2
1 1 5.0549960390608142 1.0629674265542950 3.1661965367778349 0.5124900000000000 0.2
2 1 8.0629872000099176 2.9939762681145359 8.0992630513212625 0.4162825000000000 0.2
3 1 1.2347720991806539 5.5244266624404581 6.0770574622120828 0.5000000000000000 0.2
4 1 5.7040479746622035 9.0081177056535768 1.7687816847732296 0.5380900000000000 0.2
5 1 3.7604779135250972 0.2497332993971429 7.9550224852188540 0.5163150000000000 0.2
6 1 8.3074236543325632 3.1437310472347293 0.4596404038031675 0.3666925000000000 0.2
7 1 8.9309206571796036 0.6238935572881360 5.8547865925042988 0.3766435000000000 0.2
8 1 5.2489133526972847 9.6441522896774838 3.7611741778585830 0.7919650000000000 0.2
9 1 0.9106686893822074 1.5733248735844874 6.1697266840420788 0.4401755000000000 0.2
10 1 0.8128344357621056 6.0117389299220330 4.0061566352761062 0.6164200000000000 0.2
11 1 4.8577418852409684 7.0401760147230767 0.7350068465907489 0.4648655000000000 0.2
12 1 9.2160300375448454 7.9878786322565309 7.6883593804303905 0.5510300000000000 0.2
13 1 7.9365824116662775 6.6373463969039195 8.6686338432296974 0.7180050000000000 0.2
14 1 6.6793968810703142 5.9108450807510362 1.8893789766236901 0.4623000000000000 0.2
15 1 8.6271214649185346 1.3268534047642493 3.4749620571187427 0.6967300000000000 0.2
16 1 6.0562792072863347 7.7899001152723750 8.9586736196902912 0.6073950000000000 0.2
17 1 7.3811108443437892 7.9153254169697593 3.8675182871620706 0.3707300000000000 0.2
18 1 4.5872670640760935 8.6426704674999364 0.5974207133329198 0.4403200000000000 0.2
19 1 7.7492720563596329 7.6983513130406189 1.9938443351411312 0.3662995000000000 0.2
20 1 3.5613404910740267 3.3198834820937018 3.4529693512424471 0.7897999999999999 0.2
21 1 7.1154979236771743 1.2752305505848471 6.9312709250577660 0.6512000000000000 0.2
22 1 9.0208717618763448 6.7741103615227711 6.2711208096881528 0.3904030000000000 0.2
23 1 6.8390814987305149 7.6723328784735489 4.3138452272465555 0.3714140000000000 0.2
24 1 4.1203967439024316 6.5048706844808866 9.6135442403445452 0.3616105000000000 0.2
25 1 4.8112141897290490 3.0712312935290891 0.4457175710383786 0.5147250000000000 0.2
26 1 3.1622938332467649 3.7465651259496604 4.9173171873776278 0.7802550000000000 0.2
27 1 4.5992222996803198 8.0585417180311065 6.4663285125942691 0.4616785000000000 0.2
28 1 0.2573515433704135 2.1637132229687102 2.6100430450645606 0.4039595000000000 0.2
29 1 7.6975960387444298 4.1161608259999278 8.0112653905353959 0.7415450000000000 0.2
30 1 5.1727501130293669 7.8033691807926377 0.0379337656342250 0.5892150000000000 0.2
31 1 2.1649102696179985 8.0026355265584606 2.7522502384617531 0.6583500000000000 0.2
32 1 8.5063143560069783 1.5303600230620611 1.2955028863240783 0.7759100000000000 0.2
33 1 1.3718984768095182 1.5060634905791159 7.6486292084606236 0.4519360000000000 0.2
34 1 7.9378384252768495 1.9367785937588364 7.0352800653624232 0.3747375000000000 0.2
35 1 7.5427608944240534 9.1110710128330936 8.0960252369681491 0.4120415000000000 0.2
36 1 7.9230927411216650 9.0030116832285039 4.4511873874868630 0.5750800000000000 0.2
37 1 1.1502454892790364 0.4412125603059139 1.3618491547940719 0.5162500000000000 0.2
38 1 4.9112251172648715 0.4251742484200058 5.0170733742633029 0.5941850000000000 0.2
39 1 3.2142979031422141 4.4306675963716007 7.0196534076163708 0.6515550000000000 0.2
40 1 2.1027910800611496 0.7332652017354245 7.8439004203723721 0.6209500000000000 0.2
41 1 0.5256132509090862 4.5216903930348735 8.1840723466479766 0.4182075000000000 0.2
42 1 8.8628828968949946 5.1530468595294785 9.1111689451711619 0.4843040000000000 0.2
43 1 0.0824007008878584 9.1341673928640041 7.4719883178847626 0.7351350000000000 0.2
44 1 2.6843571880699395 6.6320879792007039 3.4834626162707152 0.3681760000000000 0.2
45 1 9.6842034423250212 5.6719199411908185 1.4257145402594635 0.4605120000000000 0.2
46 1 5.3736826605590959 7.9672011437721322 1.7691973540974695 0.5314000000000000 0.2
47 1 6.6213300266270236 3.6335311096972251 0.0723319678622272 0.3917005000000000 0.2
48 1 9.2017247097850206 3.1988080899864912 5.1895462912678498 0.3983635000000000 0.2
49 1 9.5997921964660460 5.8150121998050386 8.9880885336871987 0.4824545000000000 0.2
50 1 2.9497050848180222 9.0683829871384667 0.6351899033239391 0.4489110000000000 0.2
51 1 1.8364897784069421 1.4384238373377243 4.3629386637958483 0.6179400000000000 0.2
52 1 0.7914964019093537 6.6070312504760658 1.3212118806797564 0.3742770000000000 0.2
53 1 9.2928404786251058 7.4575918698779402 4.7299567395864379 0.6348300000000000 0.2
54 1 3.4049020862750288 6.1445112779354449 9.4698634979529448 0.4236810000000000 0.2
55 1 1.1516342661791572 5.5629593161128774 1.2542515274189772 0.6781700000000001 0.2
56 1 5.1761927144296971 9.5128659681979073 5.7655258792483002 0.3870130000000000 0.2
57 1 3.2414327661721201 5.0167538744802789 8.9544375910047833 0.6346650000000000 0.2
58 1 0.6198765962050728 6.5131164836127242 3.1473390170842279 0.3912565000000000 0.2
59 1 3.8053600442850195 3.3805664372340565 7.7469046221259967 0.7547750000000000 0.2
60 1 6.9802627438913261 5.1045428898230556 5.9113088012966930 0.3948225000000000 0.2
61 1 6.7430192636078425 4.2848506052759587 2.6711587141809505 0.4921890000000000 0.2
62 1 6.0865783880341366 5.6442962157872074 5.5002016285108102 0.4629365000000000 0.2
63 1 6.8965285281211335 0.7738708506498422 9.0006111236951920 0.3616485000000000 0.2
64 1 9.3807313331294804 8.2520574319694493 0.2499433756192992 0.4217555000000000 0.2
65 1 7.0646850336478488 2.9485334439435169 8.1382633016919552 0.5792300000000000 0.2
66 1 3.7367420179346631 4.9070601298884284 3.4590926324500724 0.4498485000000000 0.2
67 1 3.9249164541641179 7.1811538437196889 7.6606813128971902 0.4212635000000000 0.2
68 1 4.6002030059666890 1.3662319759988346 0.9966112926313916 0.4587420000000000 0.2
69 1 4.5057617300104100 8.4400513369149515 3.6593052546525038 0.5822300000000000 0.2
70 1 7.4855508766670651 4.7680828635075843 2.8244122839247972 0.4044480000000000 0.2
71 1 9.4869290946142169 1.6090185446727028 8.2843405964550101 0.3764255000000000 0.2
72 1 8.6258935308888898 2.8519279427216833 8.7057946245032731 0.3927705000000000 0.2
73 1 7.1394072499921029 6.2501630904471233 6.8960813754026775 0.5562500000000000 0.2
74 1 0.0120404447647559 0.7425963400398726 0.8244272393235537 0.7324700000000000 0.2
75 1 2.2635774181670572 1.4732059382322025 3.3880334308200224 0.4321290000000000 0.2
76 1 2.7701877765416039 5.5364967833062098 3.9407383305915960 0.7884350000000000 0.2
77 1 6.3929190015499726 4.3669142121925484 0.6432087967192345 0.4313700000000000 0.2
78 1 8.9833391252613222 5.9673305706925728 0.3461821391128506 0.7426700000000001 0.2
79 1 1.2940074028142410 9.5944383598043537 7.5815034371105448 0.5587299999999999 0.2
80 1 9.2899899394391134 8.8478966328408521 4.3486478473171433 0.7997950000000000 0.2
81 1 2.9661877696240251 8.6162580925117211 2.0981366788644107 0.4579850000000000 0.2
82 1 8.6758819418394832 0.4643213889516217 4.7754421628292043 0.7346549999999999 0.2
83 1 2.4730748822705744 0.4617050146163408 5.4959687553175129 0.4215560000000000 0.2
84 1 0.9292657840622852 6.8513500508046086 7.7944236200172989 0.4607780000000000 0.2
85 1 1.5825645417929421 4.2745850621785273 2.7682508329045219 0.4999980000000000 0.2
86 1 2.8983451067888080 2.5169131750473062 5.1672255835684062 0.3806465000000000 0.2
87 1 2.0476448754794427 2.4232941084471706 7.8795010032797990 0.4997205000000000 0.2
88 1 1.0027536068180898 9.5584758990034935 6.6631560906011789 0.4046105000000000 0.2
89 1 5.3826432700957474 7.4909071722174501 5.0321097342638978 0.5063350000000000 0.2
90 1 8.5414036213465128 8.9811293103286811 0.6058534831214495 0.7369250000000001 0.2
91 1 2.4752761716949885 3.4307423388046598 7.7725965612467585 0.5393500000000000 0.2
92 1 2.6521320423502077 4.6504827052264393 8.0293949421597244 0.5210050000000001 0.2
93 1 3.4510261461329241 4.8019988301256795 4.5273993514229147 0.3715265000000000 0.2
94 1 8.4124207346760311 6.9528640618391213 9.7049255922132822 0.4147785000000000 0.2
95 1 5.2418670057494952 5.4619718787178497 9.4536297079041951 0.5593250000000000 0.2
96 1 1.5762250737910128 0.9952789383559730 2.8828768018779725 0.4392310000000000 0.2
97 1 0.2623354012117521 5.2543180629567976 6.3150589151865253 0.4929155000000000 0.2
98 1 2.7757896841880014 2.2672167710915141 2.9994314888895897 0.5589350000000000 0.2
99 1 0.2808994920919585 2.3556220572238229 8.2082054484596938 0.5029200000000000 0.2
100 1 1.3606276411833735 2.2432181692034878 3.0651983490029977 0.7714299999999999 0.2
101 1 7.7048353482065828 3.2975553219071481 9.2538877098207024 0.7448150000000000 0.2
102 1 8.8616216073084129 2.3066168784138057 7.6715072191438836 0.7168150000000000 0.2
103 1 5.8172043456895377 3.5098304866964574 0.1742745286149757 0.4075345000000000 0.2
104 1 0.7096036011915114 6.1284571369438670 9.0731184698921084 0.4109360000000000 0.2
105 1 6.2105532509370054 8.9670702146219039 4.1462436861077405 0.4319070000000000 0.2
106 1 3.5744276274097522 1.6203700754236170 9.1789745860586542 0.6148200000000000 0.2
107 1 1.6870749640600671 0.1379545349079934 5.9265267341374450 0.5135600000000000 0.2
108 1 9.5387646565204776 0.6049080796489501 3.8701282990196901 0.5124750000000000 0.2
109 1 6.8222875756501749 7.8160224653231767 7.2971547280825630 0.4586710000000000 0.2
110 1 2.6397848951472209 2.1564091870987188 5.9525870804882919 0.5212350000000000 0.2
111 1 9.5175075036711512 9.3537974091769129 1.0719065712406242 0.4070420000000000 0.2
112 1 8.8463743169674185 0.1186028490246887 1.5274935345524097 0.5330650000000000 0.2
113 1 7.2300873271291204 0.6670161034860036 5.9728053671204746 0.4884800000000000 0.2
114 1 8.2536613848890195 1.8914927447248828 2.4811300193575860 0.4865350000000000 0.2
115 1 7.6250759947361209 1.1510224990506015 2.1901694587391245 0.4578045000000000 0.2
116 1 6.1971662625063892 8.4174140265241437 2.3335437790275377 0.3993510000000000 0.2
117 1 5.5067765289961557 6.7568245950825405 4.3526744228558885 0.4889610000000000 0.2
118 1 6.5595417390087700 5.9527127074287911 0.9225711796978536 0.4600195000000000 0.2
119 1 3.8333411389229570 8.9571410063985404 1.2832108699764797 0.6193600000000000 0.2
120 1 4.1503683607652526 5.5450274225866680 9.4723207242097001 0.5329250000000000 0.2
121 1 0.4780478994613462 9.6570769205416234 4.0687430610151756 0.4515735000000000 0.2
122 1 5.7106518350794975 2.0587965036732809 4.5499493068430743 0.6554050000000000 0.2
123 1 1.9769408657556413 4.7659473393493128 9.3007500915646411 0.6981200000000000 0.2
124 1 1.6515078743602267 5.2833715691943421 6.9836429745028532 0.3930615000000000 0.2
125 1 4.3052530376254019 6.5048068146392284 5.0901144881026754 0.3694375000000000 0.2
126 1 6.1760693229694255 3.9957996387977643 7.3707589077389111 0.3683290000000000 0.2
127 1 4.7591590596932507 6.1666179705479580 0.3447428791049984 0.4933850000000000 0.2
128 1 5.3237560841600899 2.5862893360828347 8.0435899286805856 0.4001935000000000 0.2
129 1 6.8244535721767692 7.0355733773377098 0.7954161200381825 0.6196250000000000 0.2
130 1 8.0285409025286807 6.8379016760806728 2.4725914550747969 0.3728560000000000 0.2
131 1 6.5266811876213202 0.6975622087357811 5.0755546091790764 0.6510100000000000 0.2
132 1 1.3088027294933884 2.5537895965055126 0.7279719871332759 0.4206400000000000 0.2
133 1 7.4185861230055137 7.6662063101054816 1.3082471251692678 0.3834890000000000 0.2
134 1 0.8413621960945313 6.1301244920770888 5.1938772500871631 0.5621200000000000 0.2
135 1 1.5560840496472352 1.8865577830437581 1.9666919095861166 0.3754805000000000 0.2
136 1 9.3843756946200436 9.4722256311989295 5.4961065367783046 0.5002350000000000 0.2
137 1 5.0713427321890059 6.6492729328663458 5.1170856815476302 0.3880280000000000 0.2
138 1 4.5842478468079593 5.0781685456064771 0.8378765941858203 0.7032150000000000 0.2
139 1 6.6089435638586904 7.2239821756897982 6.2796581044174236 0.6983700000000000 0.2
140 1 6.6621359894345824 6.9712660544218084 8.4764765944581963 0.4542710000000000 0.2
141 1 8.5561865361627980 0.4612005053221440 0.6324243069508150 0.4566025000000000 0.2
142 1 6.2467646879739904 2.7233127583462258 2.2807650619201834 0.3743885000000000 0.2
143 1 2.2982315919532019 1.1203376446689874 8.9165416173339054 0.4806770000000000 0.2
144 1 6.4163894824794552 2.8661712011388474 4.1292936975639272 0.4859215000000000 0.2
145 1 -0.0186653883727614 1.8457436129997911 1.4596532193570080 0.4706720000000000 0.2
146 1 3.0487025487979724 3.8580620495425495 1.3119505628377883 0.5096900000000000 0.2
147 1 6.6644443676942160 8.8748541969600208 7.6167448162311375 0.6143800000000000 0.2
148 1 5.2201735081286254 0.0089955016952122 2.3672092162653113 0.5011050000000000 0.2
149 1 9.5653823151746717 6.7174528237319775 1.3900411563779380 0.5804450000000000 0.2
150 1 4.8556031485545557 9.1305981234611551 4.7792495328574249 0.3770395000000000 0.2
151 1 3.9082914790253476 3.0104699233497092 9.2343785632545448 0.7732599999999999 0.2
152 1 6.7563969509226283 0.4583075506783475 9.7220508511650294 0.4307570000000000 0.2
153 1 7.8000574103681535 0.2919070818937713 2.3614457549098877 0.3905040000000000 0.2
154 1 0.2374844603115930 9.7083379099823688 1.9999995710958050 0.6826100000000001 0.2
155 1 2.6247887721712146 5.4929517742231306 7.3224860439211055 0.5766050000000000 0.2
156 1 9.4963179722926476 0.7047289974990699 2.8363140494306585 0.5191050000000000 0.2
157 1 2.5759546937347024 2.5566334506821846 1.3462884269089848 0.4106890000000000 0.2
158 1 5.7858733807905223 6.8875049502678944 8.5328222740875042 0.4093745000000000 0.2
159 1 9.5381913078506599 5.3722962988625085 7.2476306488714846 0.4335330000000000 0.2
160 1 6.9122137136958663 8.5440572133637289 6.4075521638354900 0.6605200000000000 0.2
161 1 0.2449705405918267 2.8165489273270907 9.0149420692914077 0.4215420000000000 0.2
162 1 7.5966666136510472 6.9405679131582367 4.0106674127583863 0.6129550000000000 0.2
163 1 7.6955889121122816 4.4973591171739660 1.9883413046281557 0.4975395000000000 0.2
164 1 3.9501670749523163 3.7528739727337173 0.6034523631973180 0.5540900000000000 0.2
165 1 5.4416572685669005 2.5949417778054360 2.1242073128399483 0.4538265000000000 0.2
166 1 4.3157859004119947 6.0559929423079444 6.8105885567355955 0.4059420000000000 0.2
167 1 6.1338572349020808 2.5224993037704309 7.9929682996319018 0.4023925000000000 0.2
168 1 3.3410820816345068 7.6379996623443756 8.2029287947106990 0.4874140000000000 0.2
169 1 8.4695039409245929 3.5354203271824258 2.6754207649848465 0.3875285000000000 0.2
170 1 2.7278100897192634 9.1110394663635628 4.4586467240523762 0.6087600000000000 0.2
171 1 6.5102961888085353 3.9096658802282724 8.1627240506367134 0.4647605000000000 0.2
172 1 3.2118819402690635 6.0089269877140152 2.9491677387099058 0.3842370000000000 0.2
173 1 4.2080829063420762 0.7202590932574617 3.6932160200397748 0.4935495000000000 0.2
174 1 7.0695437171519027 0.3487508680529511 7.9370209707481152 0.6664150000000000 0.2
175 1 4.0001076226399173 8.1362874580596216 8.6098258096183748 0.4035855000000000 0.2
176 1 7.5337032731408922 7.7098657228243379 6.5680778737799566 0.3725095000000000 0.2
177 1 4.1420573335335407 0.9732307443841111 7.2961972039049314 0.4475955000000000 0.2
178 1 5.9329574906316651 0.7261357416280887 0.7006812440519460 0.4688440000000000 0.2
179 1 0.4150563133871707 2.2750225138908942 0.7723112493039419 0.3881465000000000 0.2
180 1 3.3725070747816623 0.5880881270684190 4.1460175511657562 0.4656750000000000 0.2
181 1 0.0084053704717257 7.8392318669406293 6.0865925329794841 0.3877605000000000 0.2
182 1 2.3327937198728934 8.1338550005301702 6.9902596952137870 0.7812600000000000 0.2
183 1 7.7415880541581510 5.3113758821098749 3.3325859845785408 0.3735800000000000 0.2
184 1 3.8048624328856695 7.1287666603662370 4.7312434078580674 0.4885015000000000 0.2
185 1 4.9147355337087451 4.1495948149528328 9.4886442443233481 0.7562449999999999 0.2
186 1 0.1392456179073558 4.2131064534649312 0.0233947795995858 0.3917555000000000 0.2
187 1 0.1416762326482028 6.9245880403311073 5.6821282106107329 0.5989550000000000 0.2
188 1 1.8855812705796966 4.9655754275289627 2.0764291489864721 0.5107000000000000 0.2
189 1 8.9488878719735130 5.6507968445875250 4.6527769556523459 0.4564810000000000 0.2
190 1 4.7660046324343837 3.4695648294737564 3.9231070680521891 0.3762735000000000 0.2
191 1 8.7280855899602230 4.8200352180516335 1.3115214225422516 0.7685900000000000 0.2
192 1 3.2141670035192336 5.2275215697645940 2.8474457808110056 0.3672850000000000 0.2
193 1 0.7686028663251233 9.2598026002672515 0.8060798356864678 0.6089250000000000 0.2
194 1 8.4842695963967358 8.1718591053266856 5.1420366596969229 0.4995680000000000 0.2
195 1 7.5787887590386314 9.3402063893458322 3.0527079281666185 0.6020400000000000 0.2
196 1 9.2422435333747632 1.6107834668357215 2.3820181038503181 0.5104050000000000 0.2
197 1 8.4449884274837892 2.7983935929411454 1.9928466485122174 0.5590000000000001 0.2
198 1 6.2262317356414369 1.5793711333095581 1.2346906478017885 0.5690250000000000 0.2
199 1 4.3407459407673334 0.4504614301426312 2.7096753265634392 0.5291500000000000 0.2
200 1 7.5820407686283664 0.3661674191158645 1.2779773637120813 0.7091850000000000 0.2
201 1 9.3945496527282160 2.3454254738227673 6.6783685416568934 0.3922940000000000 0.2
202 1 3.4585429404804655 7.7161719622797609 9.1360222389156078 0.4542570000000000 0.2
203 1 8.2003406387735698 6.3185114790018533 3.3289807837868910 0.4367300000000000 0.2
204 1 5.2079112550689812 1.7858881733180507 9.3225345753566149 0.3620035000000000 0.2
205 1 7.6840821361593452 2.2101160064958045 6.3287205061617362 0.4203840000000000 0.2
206 1 6.5383431788381081 6.0962459011635044 4.4818361431009448 0.7108950000000001 0.2
207 1 9.2829020536972475 8.8946024605626697 8.9153600155902755 0.7976950000000000 0.2
208 1 6.7760127945531412 3.9081724062092444 4.5880002013017496 0.6991350000000000 0.2
209 1 2.1245204636791488 8.4433427311628577 1.7077904883910962 0.4522140000000000 0.2
210 1 5.8698517985709691 5.8071536158100496 8.4557437239753490 0.6662150000000000 0.2
211 1 8.6723912503327316 1.1912875674967245 8.8495081187575551 0.6427600000000000 0.2
212 1 6.1219113092770447 6.7488420666613171 7.4892575896503146 0.6864050000000000 0.2
213 1 9.4758224753868490 5.8977095269352864 4.0652610115736927 0.3643480000000000 0.2
214 1 5.1033928364540015 1.0659869347505242 7.1646408258766128 0.3931265000000000 0.2
215 1 2.1400147150109823 2.1368008909259641 0.6168489644570785 0.4988025000000000 0.2
216 1 3.2598205529379878 9.5027701621871135 8.8535355860959069 0.4258295000000000 0.2
217 1 0.7953654972407692 2.7056717146034721 1.7485218778126765 0.7249600000000000 0.2
218 1 2.4207390632184813 7.0415132787376775 8.9068219232138901 0.8004250000000001 0.2
219 1 3.8335169073968705 7.9666728394646533 5.6039797023972078 0.6742950000000000 0.2
220 1 3.7272015718944234 0.1171103453760432 6.8074772377403852 0.6171400000000000 0.2
221 1 3.2575860342531717 7.1458106148656784 7.1492636254773023 0.3789600000000000 0.2
222 1 6.5085773862919760 2.6222388505187264 4.9939446310520381 0.4103385000000000 0.2
223 1 2.8639270681851783 9.1938915962379451 1.4573993314725906 0.3791875000000000 0.2
224 1 2.5815117679907149 0.1544694365165067 3.5488839538650101 0.5900750000000000 0.2
225 1 2.6097090625245158 3.8267863812956344 6.1520411691244696 0.5634000000000000 0.2
226 1 0.3075562607108929 6.1112561319801078 0.7790859054204903 0.3972660000000000 0.2
227 1 1.1292268008480837 1.6557997784675775 5.1587735605945113 0.4406405000000000 0.2
228 1 4.9797402107287638 3.3426304074854878 1.9909734918595499 0.4212955000000000 0.2
229 1 5.1685606208221229 6.5705069144931159 8.0523912358308820 0.4342980000000000 0.2
230 1 5.8756997514378906 0.4288638517821218 9.5063025702515844 0.4468830000000000 0.2
231 1 1.7907592472305136 5.2809227030676942 3.0597306946004039 0.5014150000000001 0.2
232 1 0.9456982853698103 1.8928645208806949 4.0968838865102635 0.3919050000000000 0.2
233 1 8.4814691590060818 4.8361195366802248 4.6245883606262730 0.4279395000000000 0.2
234 1 4.1049176289598561 7.5994137241253767 0.2648399070331965 0.5157200000000000 0.2
235 1 2.5483194357620702 6.7412683186857842 2.4613928198552113 0.6631050000000001 0.2
236 1 4.3486359877034033 9.4993677872051183 2.0368465189612830 0.4266340000000000 0.2
237 1 4.1303065798611449 5.4091310538434199 4.1270770566478001 0.4714780000000000 0.2
238 1 1.0160370334095605 5.7824142516661521 3.0219056174565186 0.4133880000000000 0.2
239 1 1.1308710614609605 8.3948384870153827 8.9598401167617006 0.3964360000000000 0.2
240 1 3.9478102229532190 4.7968601519359595 5.2255253889423967 0.4584380000000000 0.2
241 1 7.2909985581578933 4.2829689772255364 0.2345028844860865 0.5325600000000000 0.2
242 1 7.3245422060066110 3.2568155443977478 0.8343650445399903 0.6176450000000000 0.2
243 1 0.8728742112281329 8.7231426887727732 4.0550203189333240 0.5469750000000000 0.2
244 1 7.6023256108167132 9.3268787228075229 7.1757950336557119 0.5109900000000001 0.2
245 1 0.0869332140726984 2.9480270831117950 7.2263120314811280 0.5107750000000000 0.2
246 1 5.5413553383451237 9.3773112270339372 0.0043869079016894 0.4332370000000000 0.2
247 1 4.1026735832360544 9.3770249944228397 5.6292869787536999 0.6751100000000000 0.2
248 1 2.1777499656395429 0.9197715367957729 0.7731578875980956 0.6194900000000000 0.2
249 1 5.8317446052375717 6.6177974173418557 9.6592363037903279 0.7410700000000000 0.2
250 1 4.6910698047047372 5.9361111728316498 4.6388857064099822 0.4341765000000000 0.2
251 1 6.8880120928788822 0.5650674536099665 2.7367718894995696 0.6040600000000000 0.2
252 1 5.5420840124832944 6.0348528730266464 4.9390811562280525 0.3793940000000000 0.2
253 1 8.7763070170963626 6.0247459377656725 6.0314852682178497 0.3802975000000000 0.2
254 1 4.1947116343721618 9.2680574342494637 7.5316231377915521 0.4100760000000000 0.2
255 1 4.2548245106255429 9.2952483107119619 3.0971716921246126 0.4402720000000000 0.2
256 1 7.3755458264258973 6.5251858010094761 3.0542125668479749 0.4410130000000000 0.2
257 1 7.2840103609233600 8.2615892408990081 0.2092794318203316 0.7601800000000000 0.2
258 1 5.0761581403484213 2.7834582918729418 4.9314093268389918 0.3783790000000000 0.2
259 1 3.4266208804132674 6.9874011613450939 9.6661008591388473 0.4401500000000000 0.2
260 1 2.2984265903743135 3.6607990659025580 9.2985590882689984 0.3768320000000000 0.2
261 1 3.2897982013028617 1.1203456963770488 3.0447615030749215 0.6957000000000000 0.2
262 1 4.0266111532388216 7.2356661501551045 1.2854345113618200 0.4153870000000000 0.2
263 1 1.7636930995688829 7.4471086802588600 7.8597124401172165 0.4527635000000000 0.2
264 1 5.7884558358935951 0.5514745137171198 2.8655100493236203 0.4206925000000000 0.2
265 1 5.7855877933302970 2.9965345481821424 0.8729949491363105 0.3970845000000000 0.2
266 1 3.2018607508896340 0.9436737005714158 7.4746479377006381 0.4751475000000000 0.2
267 1 9.7219742872781350 0.6422940950100771 5.1614192563755319 0.3903970000000000 0.2
268 1 1.7691136942089760 1.6437043273388594 8.4097909454670550 0.4143280000000000 0.2
269 1 2.0869778695344943 2.1066723187600580 5.1473273434233828 0.4273745000000000 0.2
270 1 0.0532143136620426 5.7474375284092227 3.1610174081250202 0.5472300000000000 0.2
271 1 2.5310099835377780 3.2593997584787346 1.8965386682815322 0.4104315000000000 0.2
272 1 3.2898591058150175 0.4339357314790211 5.8836113399720391 0.3758865000000000 0.2
273 1 7.3587935727550331 2.8468346692004034 4.6631869402547057 0.3890110000000000 0.2
274 1 2.4640984500670493 8.9773753272197663 8.7198571690327658 0.4250455000000000 0.2
275 1 1.2464952349256606 5.5650776614043052 0.0912032006185883 0.4657100000000000 0.2
276 1 4.7324828792822045 6.0183956419717424 3.1228059530398373 0.4011220000000000 0.2
277 1 9.2432329883147553 8.3566568825332190 6.6493587770497440 0.5204299999999999 0.2
278 1 6.6972165266769306 9.4253454178729328 5.6300886295074850 0.4771200000000000 0.2
279 1 8.5677765158857060 0.7807129269483470 2.3603973722961840 0.5194950000000000 0.2
280 1 1.9853486817547841 2.8586535117149028 6.7408042295154544 0.7186650000000000 0.2
281 1 0.0359185125389884 8.7414715120579327 2.4788363933619131 0.4075430000000000 0.2
282 1 9.6066354673070968 5.0691791890710913 9.6446885968957403 0.4294830000000000 0.2
283 1 5.6183741608048994 4.8332417265723366 0.5228602569780459 0.3975925000000000 0.2
284 1 8.1881911474721658 7.5332511844778667 7.8167487411622680 0.4683260000000000 0.2
285 1 2.4010200283731962 5.8433636232084707 1.5295078691175867 0.6296650000000000 0.2
286 1 5.6401298481138635 1.3417875814390465 5.7055244932834794 0.5677900000000000 0.2
287 1 3.4983915993796648 5.5986834546723347 1.3083503503840732 0.5117850000000000 0.2
288 1 2.1902893615747909 4.6597272483384646 0.9619721070794075 0.6814950000000000 0.2
289 1 4.2238824791389167 8.6703141223073299 4.8713555833853341 0.3640450000000000 0.2
290 1 1.0652559380630788 3.1657854022702865 6.0269995515507402 0.4832135000000000 0.2
291 1 2.1974192981733198 9.1572818539207521 7.6919545296095402 0.4310715000000000 0.2
292 1 5.3108652565548731 3.0175598719351071 4.2412008374229320 0.3779315000000000 0.2
293 1 6.1740084523224512 7.6986142492924285 0.2694076482871063 0.4235115000000000 0.2
294 1 7.8907037129903701 4.2598257333070695 4.3215941062615499 0.3827835000000000 0.2
295 1 1.8558117273213566 0.7813461469112407 3.6100277272852086 0.3668520000000000 0.2
296 1 1.8100124940658915 0.9906445437626619 1.8085882342289465 0.4482195000000000 0.2
297 1 4.6691524998515588 3.8791103748754847 6.9645255998786526 0.4467520000000000 0.2
298 1 9.0320716977944873 4.0727104995827199 4.4728012965435777 0.4643865000000000 0.2
299 1 0.8594263928696735 5.1286810737905766 2.3879477336852721 0.5043250000000000 0.2
300 1 8.8735940154167707 7.9232936739356949 1.0818641419577386 0.3650950000000000 0.2
301 1 9.3535999071485048 2.6538099174780214 5.8706932349157182 0.4631000000000000 0.2
302 1 0.8238419831086287 4.8351443589871437 3.4816001677504995 0.6255800000000000 0.2
303 1 0.5438100838272830 7.9639671126115674 2.4878764304592571 0.4898265000000000 0.2
304 1 4.1762238368786635 7.3710437053929843 3.7764968638242551 0.5391899999999999 0.2
305 1 1.1761308313587699 8.7028673539501238 6.9907798982477507 0.5052550000000000 0.2
306 1 2.1535677751583528 2.4984688948120519 2.1977889066196350 0.4064860000000000 0.2
307 1 2.9136364459964557 2.5514259037448768 7.4745999747439598 0.4591620000000000 0.2
308 1 4.4749329615638773 1.9740766917674455 0.1588766592934766 0.5725300000000000 0.2
309 1 3.3599550399552940 5.4034468003817944 5.6851513778784568 0.3806120000000000 0.2
310 1 1.9304924984302156 8.8707839352180446 3.6084342040821911 0.5794000000000000 0.2
311 1 9.3487022966915312 0.8510389597343032 1.8832770037176589 0.3863345000000000 0.2
312 1 8.1525825955522784 0.4505780955492370 5.8369992207761419 0.4145930000000000 0.2
313 1 7.9977243753436067 1.3137106259091647 7.7950503744904962 0.5772150000000000 0.2
314 1 3.8483667904423546 3.5454138766483978 6.2520023221452528 0.6779450000000000 0.2
315 1 5.9359095839063309 3.8944189331317189 5.4560745916496547 0.4881620000000000 0.2
316 1 6.3659835753839866 8.1999333779991606 5.1913505211346536 0.7145100000000000 0.2
317 1 2.0900217327790132 8.8676109416409030 0.8866516951489718 0.4682660000000000 0.2
318 1 8.6367323547590242 7.5111888785885244 6.9087019517207366 0.5303150000000000 0.2
319 1 7.2175717615939083 2.2883884141457891 1.8317685848090655 0.7761400000000001 0.2
320 1 2.5877369237597847 0.5432444711874718 6.5852694355440269 0.6062400000000000 0.2
321 1 3.8045797814076878 6.6275876845456629 7.0044906676830507 0.3753820000000000 0.2
322 1 7.6137134139048142 9.4709811226752549 6.1432917537302014 0.5272950000000000 0.2
323 1 8.6937725037549569 1.2326185789053221 6.7171882212079934 0.7030050000000000 0.2
324 1 3.8221340911945689 2.3483446497339959 2.5728145944419003 0.5419200000000000 0.2
325 1 3.5461642358028964 8.0842145098504972 4.3534357764832956 0.5675249999999999 0.2
326 1 1.1506726280184931 7.1265199302459692 5.4705729018000824 0.4247185000000000 0.2
327 1 2.8129973841417133 0.9888687572001967 1.8384176003816475 0.5043700000000000 0.2
328 1 8.3728459843399854 3.9445314532519320 1.9893517225391635 0.3649925000000000 0.2
329 1 6.1136730170917115 0.4755047225251208 1.7706426975854226 0.6354100000000000 0.2
330 1 3.9304616449386893 8.8010854742508062 2.3305335073507827 0.4381000000000000 0.2
331 1 0.2081837050356873 0.5141866941668128 6.2353693436575099 0.6961050000000000 0.2
332 1 3.5679759025443500 1.3912407649608296 6.3518686090747298 0.7026900000000000 0.2
333 1 7.9073088353695367 9.0141032906841385 8.9918874464768468 0.5592650000000000 0.2
334 1 6.1140200884680276 1.6262403095926068 6.5810043824654025 0.4512590000000000 0.2
335 1 1.0126654487457614 8.9860016756985281 2.7991359807728156 0.6422000000000000 0.2
336 1 9.4135403741529231 7.7396794688358455 8.5828328947041737 0.3773650000000000 0.2
337 1 5.1847902405992166 7.6099681148516849 3.9241087566492263 0.4981090000000000 0.2
338 1 5.5030534313624351 2.7477352885375095 7.2633347333810381 0.4054400000000000 0.2
339 1 2.9393776409691674 2.3498941277478900 9.5889825688043011 0.4034610000000000 0.2
340 1 5.9287922457197695 9.6701610203671606 7.9079878844245988 0.4980320000000000 0.2
341 1 9.3083032151983947 9.6813135080989952 0.1918267425711138 0.3660605000000000 0.2
342 1 3.2504545621419889 0.1902857738005824 5.0207031802480548 0.5017350000000000 0.2
343 1 6.7204147807278565 3.5213960079008420 3.3604940035458704 0.5283350000000000 0.2
344 1 2.9948428354785479 4.1526100488017503 0.0830236139961320 0.5928300000000000 0.2
345 1 9.1231417059145343 3.0797432136134564 4.2246359262648472 0.5066750000000000 0.2
346 1 3.5415676785042955 5.5069116080372025 4.8731206927184560 0.3775205000000000 0.2
347 1 0.3115272176454855 3.2042430006632077 5.4201566757881352 0.4711355000000000 0.2