ITEM: TIMESTEP
3
ITEM: NUMBER OF ATOMS
1000
ITEM: BOX BOUNDS pp pp pp
0 9.66527
0 9.66527
0 9.66527
ITEM: ATOMS id type x y z radius Transparency
0 1 0.5913478064147614 3.1994751764744920 7.9391382809567252 0.4358495000000000 0.2
1 1 5.1029173423410645 1.0213853903794377 3.1153023119537377 0.5124900000000000 0.2
2 1 8.0343349085312088 2.9950627261612284 8.1035284859758629 0.4162825000000000 0.2
3 1 1.2375275324310855 5.4707649340853317 6.0948785056314545 0.5000000000000000 0.2
4 1 5.6922238901291040 8.9324704707338665 1.7501308030551739 0.5380900000000000 0.2
5 1 3.7783184316873619 0.2641741264432720 7.8716147048066434 0.5163150000000000 0.2
6 1 8.3017780689485647 3.0951515994659671 0.5154824785352848 0.3666925000000000 0.2
7 1 8.8987442540945612 0.6060611325924469 5.8197462251350451 0.3766435000000000 0.2
8 1 5.2043106870543676 9.5431498707401428 3.7513730250571791 0.7919650000000000 0.2
9 1 0.8706441749866065 1.4564956716829118 6.1076438072704438 0.4401755000000000 0.2
10 1 0.8589250763541930 5.9871783417886322 4.0163421129426586 0.6164200000000000 0.2
11 1 4.7664035624454115 6.9963249403894077 0.7656991615871911 0.4648655000000000 0.2
12 1 9.1288732538770727 7.9253350693609388 7.6718202211662154 0.5510300000000000 0.2
13 1 7.8846288074217803 6.5719647714701441 8.6080953241823117 0.7180050000000000 0.2
14 1 6.6953675939984016 5.7856490471112849 1.8368819133186347 0.4623000000000000 0.2
15 1 8.6007759004949218 1.3205695311171342 3.4687209302647974 0.6967300000000000 0.2
16 1 6.0422124331822564 7.7576569318690769 8.9473238547755596 0.6073950000000000 0.2
17 1 7.2555098675756522 7.8455454501485331 3.8882286840319411 0.3707300000000000 0.2
18 1 4.4402805179502067 8.4337540209448463 0.5039229691937587 0.4403200000000000 0.2
19 1 7.7026930412710914 7.6901605130354351 1.9997884457170045 0.3662995000000000 0.2
20 1 3.5264564015102686 3.2705418923131448 3.4296266962578326 0.7897999999999999 0.2
21 1 7.0600014446631949 1.2372831997458906 6.8926754173385323 0.6512000000000000 0.2
22 1 8.9435147343169916 6.6887666532934356 6.2939618800922732 0.3904030000000000 0.2
23 1 6.7416112549965348 7.4907301044054666 4.2938573339291422 0.3714140000000000 0.2
24 1 4.0749469327913248 6.4364572522846419 9.4754960102224519 0.3616105000000000 0.2
25 1 4.8448991945054978 3.0027253255549256 0.4581026388798792 0.5147250000000000 0.2
26 1 3.1200966356049822 3.7663970469219423 4.8787575185470438 0.7802550000000000 0.2
27 1 4.5569501336874527 8.0337020044729091 6.4296477842275221 0.4616785000000000 0.2
28 1 0.2734300968831303 2.1605964877240420 2.6285505793244273 0.4039595000000000 0.2
29 1 7.6826874274463997 4.0904661536545293 7.9514000830016727 0.7415450000000000 0.2
30 1 5.0993977969008801 7.7640817327160381 0.0208557835976102 0.5892150000000000 0.2
31 1 2.2238720880745562 7.9101644264398674 2.7035788610280185 0.6583500000000000 0.2
32 1 8.4604732335477557 1.5003418377184363 1.3035353463593022 0.7759100000000000 0.2
33 1 1.4961178065483438 1.5997153546714662 7.5435246619804435 0.4519360000000000 0.2
34 1 7.9042960393127419 1.9650907405683207 7.0319624954886875 0.3747375000000000 0.2
35 1 7.4528842861605824 9.0039777775093732 8.0837584216005958 0.4120415000000000 0.2
36 1 7.8718916121734601 8.9469304996030363 4.3435837535867563 0.5750800000000000 0.2
37 1 1.1346108236937851 0.4385435802926332 1.3583058527034575 0.5162500000000000 0.2
38 1 4.8313666288602413 0.4388300317163029 4.9750725953834518 0.5941850000000000 0.2
39 1 3.1989264321440638 4.4213062593750108 6.9675911359492142 0.6515550000000000 0.2
40 1 2.1357190825821601 0.7481722032217045 7.8116840433982766 0.6209500000000000 0.2
41 1 0.5231627771261358 4.4867902315518275 8.1672071305678031 0.4182075000000000 0.2
42 1 8.8049889679869384 5.1393194866892813 9.0227242819391975 0.4843040000000000 0.2
43 1 0.0685987208064918 9.0454569559668556 7.4501554006017381 0.7351350000000000 0.2
44 1 2.6184083847163939 6.6573426385718344 3.6021274325027539 0.3681760000000000 0.2
45 1 9.6508204671334159 5.6342963984763639 1.4452803603510223 0.4605120000000000 0.2
46 1 5.2756586084467321 7.8745403364065174 1.7513957366344064 0.5314000000000000 0.2
47 1 6.6408429830344105 3.6012315419579646 0.0978888976035272 0.3917005000000000 0.2
48 1 9.0808307856487183 3.3280084405251862 5.1340754493188658 0.3983635000000000 0.2
49 1 9.5651032016376991 5.7410699095594415 8.9391322333472605 0.4824545000000000 0.2
50 1 2.9564146298443137 8.9996419250077011 0.5948185078118465 0.4489110000000000 0.2
51 1 1.8167548029818843 1.4092685099957516 4.3208041654751863 0.6179400000000000 0.2
52 1 0.8509089612540320 6.5319434548779185 1.3401888488175686 0.3742770000000000 0.2
53 1 9.2262245099353102 7.3965315455369725 4.6716885720195478 0.6348300000000000 0.2
54 1 3.4005130612914445 6.0292199434369493 9.4060281797140419 0.4236810000000000 0.2
55 1 1.1383497930540432 5.5178883719355092 1.2382033527301450 0.6781700000000001 0.2
56 1 5.1260164800406276 9.4422445226937963 5.6933314568187345 0.3870130000000000 0.2
57 1 3.2482120342276914 5.0028515224151793 8.8728072350920115 0.6346650000000000 0.2
58 1 0.6325784068174719 6.4245193447372504 3.1326584849017221 0.3912565000000000 0.2
59 1 3.8015727322801030 3.3609219619849067 7.6763787818890385 0.7547750000000000 0.2
60 1 6.9595069052680891 5.0857179832927288 5.8638214357226133 0.3948225000000000 0.2
61 1 6.7514773110446029 4.2132510277633992 2.6487142417361196 0.4921890000000000 0.2
62 1 6.0341111676316324 5.6088692141140886 5.4838628552638520 0.4629365000000000 0.2
63 1 6.8706687293196431 0.8373153547931044 8.8027118029530040 0.3616485000000000 0.2
64 1 9.3023188312235021 8.1908965213358105 0.2609676309312984 0.4217555000000000 0.2
65 1 7.0065623773417833 2.9628835432039220 8.1003364414608949 0.5792300000000000 0.2
66 1 3.7810735526918315 4.7624205484498248 3.3435126128887203 0.4498485000000000 0.2
67 1 3.8762014570256151 7.1093366348301377 7.5966547156640125 0.4212635000000000 0.2
68 1 4.5645657614564659 1.3357622419804931 0.9967983693194209 0.4587420000000000 0.2
69 1 4.4461037425555388 8.3954924537078295 3.6520634700145913 0.5822300000000000 0.2
70 1 7.4795192430200261 4.6933858109318471 2.8809454023147918 0.4044480000000000 0.2
71 1 9.4361467352823478 1.5876179247730786 8.2006841654301095 0.3764255000000000 0.2
72 1 8.5996210041854990 2.7816720711034790 8.6431516673726883 0.3927705000000000 0.2
73 1 7.1305595580330579 6.2255043506251804 6.8267684554664534 0.5562500000000000 0.2
74 1 0.0207850926955064 0.7305335667159581 0.8236882514171970 0.7324700000000000 0.2
75 1 2.2478123268362040 1.4220648421430462 3.3627174075262412 0.4321290000000000 0.2
76 1 2.7993251815201559 5.5238647425512477 3.9256329190879944 0.7884350000000000 0.2
77 1 6.3704477795048877 4.2998590417712359 0.6074179211398475 0.4313700000000000 0.2
78 1 8.9288210920264000 5.9191095203406183 0.3121041252543630 0.7426700000000001 0.2
79 1 1.2640069439051147 9.5436060003580661 7.5548153773687110 0.5587299999999999 0.2
80 1 9.2664622046493168 8.7909409414455464 4.3202701376901080 0.7997950000000000 0.2
81 1 3.0658299669676681 8.5417289369278766 2.0856415600612523 0.4579850000000000 0.2
82 1 8.6271470045341996 0.4721842849020489 4.7418086935024677 0.7346549999999999 0.2
83 1 2.4261744986385883 0.4421114197208890 5.4129341902781691 0.4215560000000000 0.2
84 1 0.9491673021379196 6.9342135168538785 7.8325402755546776 0.4607780000000000 0.2
85 1 1.6050719033615950 4.2442250667122066 2.7577745843089008 0.4999980000000000 0.2
86 1 2.8917102555743668 2.5656466111707776 5.1598260792802382 0.3806465000000000 0.2
87 1 2.0607989050682050 2.3285850664059211 7.8377459841643216 0.4997205000000000 0.2
88 1 1.0190587642674349 9.4737685789755854 6.5990256722426883 0.4046105000000000 0.2
89 1 5.3534757198278706 7.3818825353532347 4.9707514763844500 0.5063350000000000 0.2
90 1 8.4677322775481034 8.9083884367315029 0.6385658847157526 0.7369250000000001 0.2
91 1 2.4981225694079883 3.4656205280604011 7.6934486847056593 0.5393500000000000 0.2
92 1 2.6300718570709174 4.5981524386496497 7.9786203713319717 0.5210050000000001 0.2
93 1 3.5080096932395648 4.8053398362946940 4.5051659668885007 0.3715265000000000 0.2
94 1 8.3443566948745360 6.8682590686811018 9.6383655139186661 0.4147785000000000 0.2
95 1 5.2517370025814127 5.3566821150186126 9.3727708772471789 0.5593250000000000 0.2
96 1 1.5695696156409757 0.9923260866058458 2.8186809603652412 0.4392310000000000 0.2
97 1 0.2788434148139006 5.1900647427076674 6.3037041414020853 0.4929155000000000 0.2
98 1 2.7540166645025810 2.2417683306901108 3.0094371520788297 0.5589350000000000 0.2
99 1 0.2520487760725156 2.3325029689484773 8.1116238906865714 0.5029200000000000 0.2
100 1 1.3793361000046325 2.2006293587579382 3.0529606487718652 0.7714299999999999 0.2
101 1 7.6903717511610150 3.2799773034957638 9.1996056334507923 0.7448150000000000 0.2
102 1 8.7884379031876367 2.2753349761771631 7.6435866421587848 0.7168150000000000 0.2
103 1 5.8063882590545051 3.4891497609173645 0.1843873465213457 0.4075345000000000 0.2
104 1 0.7236817047540490 6.0638915423858464 9.0748761957543156 0.4109360000000000 0.2
105 1 6.1652491827463827 8.8371003806799617 4.0555191251138423 0.4319070000000000 0.2
106 1 3.5632839520127115 1.6131428000071821 9.0936269747512188 0.6148200000000000 0.2
107 1 1.6877572796834293 0.1504033620703390 5.9123313231137686 0.5135600000000000 0.2
108 1 9.4837461028055507 0.5447418837305283 3.8366052290005919 0.5124750000000000 0.2
109 1 6.8552016371360418 7.5595911003270784 7.3040596324189773 0.4586710000000000 0.2
110 1 2.5867550850074608 2.1255570738957990 5.8871808022801293 0.5212350000000000 0.2
111 1 9.4638363105264034 9.2988470255493869 1.0601728264316956 0.4070420000000000 0.2
112 1 8.7860183232880100 0.1348243095474320 1.5410577171055966 0.5330650000000000 0.2
113 1 7.1319292971377379 0.6282680455883707 5.9248413655946690 0.4884800000000000 0.2
114 1 8.2241727125741768 1.8902044399772355 2.5014999195354557 0.4865350000000000 0.2
115 1 7.6295093441402626 1.1259638151641231 2.1910412555817880 0.4578045000000000 0.2
116 1 6.1929738243899717 8.2763760378162772 2.3518745382077522 0.3993510000000000 0.2
117 1 5.4480931795250687 6.6258716840580787 4.2956756402605274 0.4889610000000000 0.2
118 1 6.5355594238369141 5.9251037091936176 0.9314130190507789 0.4600195000000000 0.2
119 1 3.7934406972536965 8.9159121085202866 1.2805201357676002 0.6193600000000000 0.2
120 1 4.1650863278014567 5.4451234545956648 9.4624302646582859 0.5329250000000000 0.2
121 1 0.5325595283499774 9.5861440087971417 4.0188882605245997 0.4515735000000000 0.2
122 1 5.6762365545412035 2.0440902004528594 4.5178333889142630 0.6554050000000000 0.2
123 1 1.9883291853749023 4.7509508048771814 9.2367426692368610 0.6981200000000000 0.2
124 1 1.5773400139600611 5.2048208063141734 6.9095143544727717 0.3930615000000000 0.2
125 1 4.2796095101898803 6.4141272929402913 5.0941083707937374 0.3694375000000000 0.2
126 1 6.2095229203923470 3.9883082701380626 7.2669014848209423 0.3683290000000000 0.2
127 1 4.6993605027178260 6.1470973644373448 0.3236786998489702 0.4933850000000000 0.2
128 1 5.3013692089825568 2.5679281632540589 7.9393377574290769 0.4001935000000000 0.2
129 1 6.7816235041354895 6.9760068579224424 0.8078720659315640 0.6196250000000000 0.2
130 1 7.9584177321165503 6.8197380971055868 2.4498757210802902 0.3728560000000000 0.2
131 1 6.4900865463709749 0.6787001637365484 4.9846031070812398 0.6510100000000000 0.2
132 1 1.2599103140970715 2.5448603668957488 0.6496959991896331 0.4206400000000000 0.2
133 1 7.3494668643052385 7.6214152714925634 1.3292094740920093 0.3834890000000000 0.2
134 1 0.8440784754626968 6.0878643177641267 5.1905533728644224 0.5621200000000000 0.2
135 1 1.5305198195095657 1.8463860446723845 1.9655600735063823 0.3754805000000000 0.2
136 1 9.3234878975668760 9.3958649251748980 5.4703423693903783 0.5002350000000000 0.2
137 1 5.0241448142208167 6.5568084042970458 5.0846073256894631 0.3880280000000000 0.2
138 1 4.5170239890929258 4.9578414129682171 0.8895673069578290 0.7032150000000000 0.2
139 1 6.5644218108692955 7.1687448380922731 6.2123286771223949 0.6983700000000000 0.2
140 1 6.6164510262626148 6.9020946036387230 8.4102311610453331 0.4542710000000000 0.2
141 1 8.5230318575359387 0.4413787725989900 0.6363458358579557 0.4566025000000000 0.2
142 1 6.2265058571042236 2.7368309104541351 2.2401594486820571 0.3743885000000000 0.2
143 1 2.3151995528422740 1.1047576911902659 8.8409283914987249 0.4806770000000000 0.2
144 1 6.3773519261349207 2.8615564724613169 4.1024702882095267 0.4859215000000000 0.2
145 1 -0.0088774320396917 1.8241128172448624 1.4947261593748040 0.4706720000000000 0.2
146 1 2.9508293715789664 3.7603666775075850 1.3152044310414570 0.5096900000000000 0.2
147 1 6.5973421737428568 8.7520546675170152 7.5580113498072636 0.6143800000000000 0.2
148 1 5.1775887886773679 -0.0305754543420146 2.3825757285253184 0.5011050000000000 0.2
149 1 9.5618350304972104 6.6992563269622680 1.4261843903357723 0.5804450000000000 0.2
150 1 4.8327640127343727 9.1097139332522623 4.8142485725555648 0.3770395000000000 0.2
151 1 3.8645147235425465 2.9677530839236446 9.1594370566644354 0.7732599999999999 0.2
152 1 6.7689276121481452 0.4886110726672125 9.5111597669240808 0.4307570000000000 0.2
153 1 7.8231940308728678 0.1552169551374635 2.3266736019973009 0.3905040000000000 0.2
154 1 0.2341437639268723 9.6423622839268699 2.0031451724879723 0.6826100000000001 0.2
155 1 2.5684242938994148 5.4658957029882824 7.2959973777552882 0.5766050000000000 0.2
156 1 9.4588888399649775 0.7429786939795548 2.8227085667746210 0.5191050000000000 0.2
157 1 2.5626335052058802 2.5042835522216471 1.3230481045551685 0.4106890000000000 0.2
158 1 5.7438963585899510 6.8865743973128746 8.5111563035315392 0.4093745000000000 0.2
159 1 9.4688090902735187 5.2725870974005806 7.1678583551510595 0.4335330000000000 0.2
160 1 6.8765228877144509 8.4878166425572896 6.3381659003578728 0.6605200000000000 0.2
161 1 0.2832467653005953 2.7690636208559147 8.9294124665485999 0.4215420000000000 0.2
162 1 7.5308183981242429 6.8920470840328125 3.9424945361714943 0.6129550000000000 0.2
163 1 7.6537935312731324 4.4888849411817704 1.9682676675074737 0.4975395000000000 0.2
164 1 3.9280665252078339 3.7020123554229252 0.5985058690912628 0.5540900000000000 0.2
165 1 5.4277308050538062 2.5706508373468440 2.0913023432233464 0.4538265000000000 0.2
166 1 4.2244297619422699 5.9430344829209956 6.6980078802476548 0.4059420000000000 0.2
167 1 6.1121387958028661 2.5660790195654943 7.9359196542782522 0.4023925000000000 0.2
168 1 3.3080719881781921 7.5637187254565710 8.1441882269930623 0.4874140000000000 0.2
169 1 8.4215359923861595 3.5027028251512990 2.6273769290335056 0.3875285000000000 0.2
170 1 2.7011905402077101 9.0507901447763803 4.4382106159661241 0.6087600000000000 0.2
171 1 6.4346043133546473 3.9425661481528804 8.1449675283210503 0.4647605000000000 0.2
172 1 3.1662304575198692 5.9438243308474679 2.8929967848984823 0.3842370000000000 0.2
173 1 4.1802737886575985 0.6770101013215015 3.6828100555392620 0.4935495000000000 0.2
174 1 7.0158120280050911 0.3700022279408745 7.8970835780980648 0.6664150000000000 0.2
175 1 3.9471734943928558 8.0767554141283249 8.5454981704090667 0.4035855000000000 0.2
176 1 7.4740266341906372 7.6606358640099375 6.5125402455189265 0.3725095000000000 0.2
177 1 4.1675870292869943 1.0322188617061558 7.2168280134698932 0.4475955000000000 0.2
178 1 5.9266157444656491 0.7181814539851997 0.6730464988283695 0.4688440000000000 0.2
179 1 0.4473781108969039 2.3404152810862207 0.7603098572660872 0.3881465000000000 0.2
180 1 3.3308669675187925 0.5319528968192334 4.1050980976370894 0.4656750000000000 0.2
181 1 0.1245467138834035 7.7758804959954659 6.1285125806367651 0.3877605000000000 0.2
182 1 2.3063878829108373 8.0637271706485532 6.9658772016346333 0.7812600000000000 0.2
183 1 7.7204238166982275 5.3112327096392020 3.2900886151984716 0.3735800000000000 0.2
184 1 3.7947434202428880 7.0738978820808214 4.7114392999188297 0.4885015000000000 0.2
185 1 4.8771980986561418 4.0793604493073898 9.4403546134295446 0.7562449999999999 0.2
186 1 0.1589979460981283 4.2290099031767161 -0.0299654606183574 0.3917555000000000 0.2
187 1 0.1106721338668799 6.9014853194308072 5.6687144038263879 0.5989550000000000 0.2
188 1 1.8752863827030493 4.9373596490932625 2.0611001443715509 0.5107000000000000 0.2
189 1 8.9070301665559484 5.6873667648406192 4.6171144469302767 0.4564810000000000 0.2
190 1 4.7470428210806181 3.4078474674923522 3.8859791872077154 0.3762735000000000 0.2
191 1 8.6916903180239355 4.7975654016894049 1.3037926430584490 0.7685900000000000 0.2
192 1 3.2213751568234410 5.1844443325927738 2.8555941498092077 0.3672850000000000 0.2
193 1 0.7719701296241323 9.2076593938183215 0.7754810907028774 0.6089250000000000 0.2
194 1 8.4256738203786465 8.0683587920502955 5.1319298723848865 0.4995680000000000 0.2
195 1 7.5218832580310995 9.2160327905804795 3.0577224068078404 0.6020400000000000 0.2
196 1 9.2095703545718060 1.6358784909152135 2.3719446264743280 0.5104050000000000 0.2
197 1 8.4152298373946248 2.7883842992704961 1.9891933771408343 0.5590000000000001 0.2
198 1 6.1705573944047316 1.5657884962994819 1.2310878579602629 0.5690250000000000 0.2
199 1 4.2853941341317103 0.4692151867186706 2.6810978283049010 0.5291500000000000 0.2
200 1 7.4989768145083557 0.3664301645679838 1.2940612052392526 0.7091850000000000 0.2
201 1 9.3276626752480674 2.2759828420583337 6.6695140520280534 0.3922940000000000 0.2
202 1 3.4406816066620483 7.7140153740419217 9.1724157877811141 0.4542570000000000 0.2
203 1 8.1357457317788828 6.3434500564115854 3.2763191761716599 0.4367300000000000 0.2
204 1 5.1856556872280866 1.7298367222696862 9.2640143349681292 0.3620035000000000 0.2
205 1 7.6333098237404737 2.1945874331692430 6.2895472942348398 0.4203840000000000 0.2
206 1 6.4724314444731696 5.9935320111032224 4.4540116819645403 0.7108950000000001 0.2
207 1 9.2087052631948243 8.8300759483299878 8.8844289971295662 0.7976950000000000 0.2
208 1 6.7695377699953418 3.8851519306123228 4.5578094113044303 0.6991350000000000 0.2
209 1 2.2033185282671535 8.4422113132422307 1.7218088221622210 0.4522140000000000 0.2
210 1 5.9019096590158968 5.8235044399183487 8.4349689863727395 0.6662150000000000 0.2
211 1 8.6337889466628734 1.2074459786160736 8.7667669430206576 0.6427600000000000 0.2
212 1 6.0718614896394785 6.7090526939731880 7.4222996105628232 0.6864050000000000 0.2
213 1 9.5318449583309448 5.8253254181562140 4.0198676902485424 0.3643480000000000 0.2
214 1 5.1108564364441902 1.0514208249003343 7.1041022681977291 0.3931265000000000 0.2
215 1 2.1300705762054766 2.0774986639552315 0.6290760947986714 0.4988025000000000 0.2
216 1 3.2497446935947885 9.4747067009490742 8.7614099568029129 0.4258295000000000 0.2
217 1 0.7917880979208179 2.6824803390573444 1.7625805793930429 0.7249600000000000 0.2
218 1 2.4357794830155757 6.9825966145734366 8.8931882529111785 0.8004250000000001 0.2
219 1 3.8179961579827655 7.8912325038669282 5.5450559528785641 0.6742950000000000 0.2
220 1 3.7045289374878378 0.0517339438278129 6.7379718510708031 0.6171400000000000 0.2
221 1 3.2393827583404482 7.1125767090470919 7.0927812749110508 0.3789600000000000 0.2
222 1 6.4847620121400871 2.5897643990756656 4.9596233322015202 0.4103385000000000 0.2
223 1 2.8096984565633933 9.0716064344717555 1.4279366831104343 0.3791875000000000 0.2
224 1 2.5491678135229425 0.1423877987125449 3.5057429277427263 0.5900750000000000 0.2
225 1 2.5700365898031450 3.8373997312356281 6.1038725022943785 0.5634000000000000 0.2
226 1 0.2991423897131624 6.0810138686894808 0.7698079430353861 0.3972660000000000 0.2
227 1 1.1153304489002751 1.6422382140536416 5.1159761310556391 0.4406405000000000 0.2
228 1 4.9501614548558779 3.3001718907530844 1.9652509584061233 0.4212955000000000 0.2
229 1 5.1378979374279057 6.5239034228564048 8.0179326699042957 0.4342980000000000 0.2
230 1 5.8655706595565311 0.4447227101346113 9.4088334193714243 0.4468830000000000 0.2
231 1 1.8736026652701387 5.2090877499097843 3.0464970359755212 0.5014150000000001 0.2
232 1 0.9681144698979954 1.9230473631475224 4.1055779780298689 0.3919050000000000 0.2
233 1 8.3453241595981815 4.9983666288782027 4.5486896281945937 0.4279395000000000 0.2
234 1 4.0521519717986632 7.5570790735639468 0.3306614661567553 0.5157200000000000 0.2
235 1 2.5462448480556641 6.6555781785812300 2.4388990406791784 0.6631050000000001 0.2
236 1 4.3418944525564767 9.4533683828993826 2.0080718973256459 0.4266340000000000 0.2
237 1 4.0759139691328894 5.3114943431831376 4.1236339923599274 0.4714780000000000 0.2
238 1 1.0384363225868076 5.7394098059411496 2.9917356614483719 0.4133880000000000 0.2
239 1 1.0202222724515255 8.3370508598960509 8.9207604804787408 0.3964360000000000 0.2
240 1 3.9183485221628525 4.7722436065890408 5.2282200748586156 0.4584380000000000 0.2
241 1 7.2863430954455222 4.2401674999890817 0.2744398414254546 0.5325600000000000 0.2
242 1 7.2656923342429840 3.2178904456225021 0.8347037581578794 0.6176450000000000 0.2
243 1 0.9091561570541801 8.6593646781862574 3.9756754413804374 0.5469750000000000 0.2
244 1 7.5269293233978809 9.2364350706671043 7.0961166009146668 0.5109900000000001 0.2
245 1 0.0773367194120294 2.8979970195015685 7.1816058363400899 0.5107750000000000 0.2
246 1 5.5159204486402214 9.2706090554364771 0.0039097795944672 0.4332370000000000 0.2
247 1 4.0773074420073216 9.2678261621465463 5.5666945034744755 0.6751100000000000 0.2
248 1 2.1615150434241794 0.9128136481126321 0.7802222732155729 0.6194900000000000 0.2
249 1 5.7959889662986175 6.5788980361351337 9.6191376313052501 0.7410700000000000 0.2
250 1 4.6752432521017537 5.9183575599211320 4.5924843568547002 0.4341765000000000 0.2
251 1 6.8683028520283003 0.5361202540299248 2.7145896507251233 0.6040600000000000 0.2
252 1 5.4658423726926149 5.9526548050658867 4.9078680541417006 0.3793940000000000 0.2
253 1 8.7212266188418859 5.9991552131191188 6.0088539891339225 0.3802975000000000 0.2
254 1 4.1809352721220394 9.1838904557184300 7.4927069727726456 0.4100760000000000 0.2
255 1 4.2568879867471825 9.2137904631518861 3.0086432253184547 0.4402720000000000 0.2
256 1 7.2999680876918926 6.4407401175432790 3.0124688364477468 0.4410130000000000 0.2
257 1 7.2223022547024973 8.1718726572736085 0.2286872452371469 0.7601800000000000 0.2
258 1 4.9696278828333806 2.7426893129629994 4.8212841466410126 0.3783790000000000 0.2
259 1 3.4450599336053709 6.9132715725718654 9.6132958456824849 0.4401500000000000 0.2
260 1 2.2038970025855584 3.6685546569908514 9.1614292689576100 0.3768320000000000 0.2
261 1 3.2822147311958809 1.1021824740177737 3.0278083767751394 0.6957000000000000 0.2
262 1 3.9203687398282652 7.1461217937771506 1.3737284911140402 0.4153870000000000 0.2
263 1 1.7343033415749416 7.4087089943361102 7.8596159590797665 0.4527635000000000 0.2
264 1 5.8419465961974604 0.4574386527165394 2.8256123104793027 0.4206925000000000 0.2
265 1 5.8223570325697622 2.9484859945275828 0.8062051111434440 0.3970845000000000 0.2
266 1 3.2278215237012065 0.9521532255791367 7.4163778091977752 0.4751475000000000 0.2
267 1 9.6830164765751814 0.5402271054954754 5.1432286601173436 0.3903970000000000 0.2
268 1 1.6777176439419410 1.5602815946850590 8.3953970958443804 0.4143280000000000 0.2
269 1 1.8937037290333432 2.1007296658786840 5.1382950438367896 0.4273745000000000 0.2
270 1 0.0826693561682637 5.6623542767735673 3.1251721107460235 0.5472300000000000 0.2
271 1 2.5345686077175325 3.1316317396949840 1.8561445187978585 0.4104315000000000 0.2
272 1 3.2910736361520159 0.3767263279522334 5.8638160007044098 0.3758865000000000 0.2
273 1 7.1670636531932193 2.8591441017506876 4.6300162809832397 0.3890110000000000 0.2
274 1 2.3578294234164683 8.8095612658169973 8.5872667018056585 0.4250455000000000 0.2
275 1 1.2540290503492579 5.6040085467481084 0.0946792684734764 0.4657100000000000 0.2
276 1 4.7232084446371028 5.8912451380713966 3.0420325414937963 0.4011220000000000 0.2
277 1 9.1651530273120638 8.2932935864069215 6.6082603733890037 0.5204299999999999 0.2
278 1 6.6875640055279346 9.4038767048321468 5.6001658128076564 0.4771200000000000 0.2
279 1 8.5171483225706979 0.7567029343261555 2.3716744575740685 0.5194950000000000 0.2
280 1 1.9851416751837787 2.8525404118673148 6.6951400025200432 0.7186650000000000 0.2
281 1 0.0528953907809349 8.6645514747007475 2.4626723405650575 0.4075430000000000 0.2
282 1 9.5455544153757668 5.0091493408370873 9.5646978793059727 0.4294830000000000 0.2
283 1 5.5309358257856625 4.7949886461558062 0.4650479427213512 0.3975925000000000 0.2
284 1 8.1087931982608730 7.3770111257144677 7.7429717194688354 0.4683260000000000 0.2
285 1 2.4000970324904447 5.7785030367242403 1.4957105639991486 0.6296650000000000 0.2
286 1 5.6351564530929599 1.3010363144782042 5.5989474922701792 0.5677900000000000 0.2
287 1 3.4974426375540997 5.4999365577900070 1.2803989062405587 0.5117850000000000 0.2
288 1 2.1630819980328653 4.5883374035611997 0.9525892634659437 0.6814950000000000 0.2
289 1 4.3102160206344582 8.5620578598571200 4.8335274207946481 0.3640450000000000 0.2
290 1 1.0498855804850167 3.1258543482369427 5.9830668878209687 0.4832135000000000 0.2
291 1 2.1889499323367820 9.0829260666965350 7.6162217834330441 0.4310715000000000 0.2
292 1 5.3481016151942331 3.0002701960325249 4.2072184908355537 0.3779315000000000 0.2
293 1 6.1297689171284855 7.6513092038410173 0.3040329445921543 0.4235115000000000 0.2
294 1 8.0245639727720981 4.3252260614910316 4.2286664269773322 0.3827835000000000 0.2
295 1 1.8063429766843542 0.7522208736569375 3.5509880023937765 0.3668520000000000 0.2
296 1 1.7998460972877115 0.9680048220569583 1.8152332982656385 0.4482195000000000 0.2
297 1 4.6526694684068133 3.8706067555724020 6.9449003577736645 0.4467520000000000 0.2
298 1 9.0568830474961892 4.0314843536024529 4.4457564697021290 0.4643865000000000 0.2
299 1 0.8924485506772972 5.0749449568330443 2.3597720573764436 0.5043250000000000 0.2
300 1 8.9015535114086948 7.8964729230429800 1.0676056467170070 0.3650950000000000 0.2
301 1 9.2925686218058541 2.6839757248098168 5.9042751569233891 0.4631000000000000 0.2
302 1 0.8035910888778059 4.8198580739068895 3.5146483224552663 0.6255800000000000 0.2
303 1 0.5843566463453215 7.9057353867666054 2.4602839386631215 0.4898265000000000 0.2
304 1 4.1386941740366527 7.3175937908534028 3.7712589436377075 0.5391899999999999 0.2
305 1 1.1526773329023288 8.6451658426020366 6.9794918617763022 0.5052550000000000 0.2
306 1 2.1841862600072885 2.4772785742626273 2.2295281238406019 0.4064860000000000 0.2
307 1 2.9115788367318975 2.5845667109289643 7.3727183230260609 0.4591620000000000 0.2
308 1 4.4555199398973357 1.9503179410446279 0.1475379537500250 0.5725300000000000 0.2
309 1 3.3337670263493169 5.4583577340235712 5.6098475309836946 0.3806120000000000 0.2
310 1 1.9534028529599106 8.7693894717120351 3.5580479909106351 0.5794000000000000 0.2
311 1 9.3059261205374781 0.8678072866729681 1.8836151585824707 0.3863345000000000 0.2
312 1 8.0320731337242588 0.5541133143515486 5.8098063714541288 0.4145930000000000 0.2
313 1 7.9320757714954260 1.2998516104737843 7.7573026462270960 0.5772150000000000 0.2
314 1 3.7931269428163232 3.5292366957824921 6.1652531370910229 0.6779450000000000 0.2
315 1 5.9013275271375845 3.8694206933915711 5.3754469706596142 0.4881620000000000 0.2
316 1 6.3371123887306249 8.0874196244089891 5.1367794043704471 0.7145100000000000 0.2
317 1 2.0923424300372648 8.8253017633988957 0.8857139818140485 0.4682660000000000 0.2
318 1 8.5578748709045218 7.4681399434074347 6.8556581830329488 0.5303150000000000 0.2
319 1 7.1921058631464438 2.2341026471521372 1.8266473426897216 0.7761400000000001 0.2
320 1 2.5702115957709606 0.4919588525034883 6.5625346886210947 0.6062400000000000 0.2
321 1 3.7912351272791032 6.5411488158273263 6.9675051562043206 0.3753820000000000 0.2
322 1 7.5895568144872065 9.3951781531127168 6.0487421083521120 0.5272950000000000 0.2
323 1 8.6306425222829848 1.2071840878923676 6.6878934284664053 0.7030050000000000 0.2
324 1 3.7635640926105349 2.2647825331982521 2.5514927082895360 0.5419200000000000 0.2
325 1 3.5066438874391936 8.0298091094007891 4.3422371290991135 0.5675249999999999 0.2
326 1 1.1015754096743169 7.0240332423097973 5.4244838728851139 0.4247185000000000 0.2
327 1 2.8079189090319878 0.9634418801124069 1.8158767253572459 0.5043700000000000 0.2
328 1 8.3192228053485842 3.9251651927150166 1.9357234584206486 0.3649925000000000 0.2
329 1 6.0359599758659375 0.4552540351080205 1.7734098932530458 0.6354100000000000 0.2
330 1 3.9363548456363748 8.7563891999228023 2.3217215023416791 0.4381000000000000 0.2
331 1 0.2304853264270638 0.4766851334163370 6.2165258034549131 0.6961050000000000 0.2
332 1 3.5252961395440785 1.3491421305624729 6.2921921806221155 0.7026900000000000 0.2
333 1 7.8466126596246433 8.9085525596313158 8.9711367807053009 0.5592650000000000 0.2
334 1 5.9498704438288108 1.6690701693675625 6.5089408610189858 0.4512590000000000 0.2
335 1 1.0265648313505107 8.9081603164382077 2.7729863778227113 0.6422000000000000 0.2
336 1 9.3399256275591398 7.6977476153360627 8.5516465652049458 0.3773650000000000 0.2
337 1 5.2019224295325834 7.5273389950397736 3.9469990512492887 0.4981090000000000 0.2
338 1 5.4873387663512263 2.7194388046287097 7.0851542637967366 0.4054400000000000 0.2
339 1 2.8798314598188339 2.3326910002141346 9.4739966165840563 0.4034610000000000 0.2
340 1 5.9151599686344811 9.6308220717762900 7.8550366621140366 0.4980320000000000 0.2
341 1 9.2098162813807853 9.6078815259940189 0.2128118666560631 0.3660605000000000 0.2
342 1 3.2194029071221224 0.1893605174596435 5.0035958096478463 0.5017350000000000 0.2
343 1 6.6884403970969517 3.4622204166524466 3.3402078730858178 0.5283350000000000 0.2
344 1 2.9508143264250450 4.0594086482429557 0.0904807278377686 0.5928300000000000 0.2
345 1 9.0627087770484884 3.0756343745052996 4.2486906867758076 0.5066750000000000 0.2
346 1 3.5088078873454576 5.4827886975180853 4.8596611175647411 0.3775205000000000 0.2
347 1 0.2753635796741761 3.1753430084998588 5.4272989359511792 0.4711355000000000 0.2