ITEM: TIMESTEP
7
ITEM: NUMBER OF ATOMS
1000
ITEM: BOX BOUNDS pp pp pp
0 9.61708
0 9.61708
0 9.61708
ITEM: ATOMS id type x y z radius Transparency
0 1 0.5861718519487543 3.1954160601123860 7.8896669984868062 0.4358495000000000 0.2
1 1 4.9980951748507279 1.0402357418701893 3.0962596467929293 0.5124900000000000 0.2
2 1 7.9491773960425398 2.9751369580039291 8.0467793064053605 0.4162825000000000 0.2
3 1 1.2155658762288559 5.4252783652956262 6.0126086452633256 0.5000000000000000 0.2
4 1 5.6273053773722470 8.8887583080334718 1.7266538769872315 0.5380900000000000 0.2
5 1 3.7451470684233539 0.2678256018016573 7.8323800761526803 0.5163150000000000 0.2
6 1 8.2298609803862757 3.0760361192252832 0.5226516600563224 0.3666925000000000 0.2
7 1 8.8306082017468022 0.5878500239766664 5.8272064518913922 0.3766435000000000 0.2
8 1 5.1721248640849904 9.5212951001065615 3.7142236671062725 0.7919650000000000 0.2
9 1 0.8486197057841925 1.4846221316370440 6.1223714474770032 0.4401755000000000 0.2
10 1 0.7868038702818404 5.9937106200216634 4.0383230757169963 0.6164200000000000 0.2
11 1 4.7633770422930750 6.9822507376553231 0.7387603678904757 0.4648655000000000 0.2
12 1 9.0743956064264548 7.8710671768987588 7.6681588417893245 0.5510300000000000 0.2
13 1 7.8553346897110004 6.5628905938512903 8.5890617442534563 0.7180050000000000 0.2
14 1 6.6637773950333976 5.7911964548694161 1.8562952577384666 0.4623000000000000 0.2
15 1 8.5451581960775780 1.2872333347374283 3.4368672684127848 0.6967300000000000 0.2
16 1 5.9577434553189104 7.7639024468947078 8.8143305767471816 0.6073950000000000 0.2
17 1 7.2145560950812229 7.7457492763464826 3.8307754893733188 0.3707300000000000 0.2
18 1 4.4120901943021655 8.4170171162677718 0.5330361530392673 0.4403200000000000 0.2
19 1 7.6709252468690785 7.6819550030033925 2.0071259937764769 0.3662995000000000 0.2
20 1 3.5151464766546003 3.2677097046385097 3.3925012378824966 0.7897999999999999 0.2
21 1 7.0508922593445833 1.2256701792283795 6.8543167903012749 0.6512000000000000 0.2
22 1 8.9281880352698604 6.6481649570782979 6.1891355879925145 0.3904030000000000 0.2
23 1 6.6889376074610913 7.4696934026262891 4.2784576784687536 0.3714140000000000 0.2
24 1 4.0720769181430896 6.4172684211383135 9.4449233398294190 0.3616105000000000 0.2
25 1 4.7813518809507052 2.9763906292435958 0.4463868930879824 0.5147250000000000 0.2
26 1 3.1041960849981378 3.7821090199855938 4.8330938576651628 0.7802550000000000 0.2
27 1 4.5331619452184295 7.9841235049472514 6.4079727541705429 0.4616785000000000 0.2
28 1 0.2977142497768675 2.1171565321380106 2.6230379032822655 0.4039595000000000 0.2
29 1 7.6884807174548975 4.1023170027483751 7.9138680355537190 0.7415450000000000 0.2
30 1 5.0953939285933210 7.6893375874164924 0.0249913944484828 0.5892150000000000 0.2
31 1 2.2175821235912387 7.8605231086842196 2.6856802683377481 0.6583500000000000 0.2
32 1 8.4412224998770267 1.4743450852177271 1.2975959949164768 0.7759100000000000 0.2
33 1 1.5214423818782910 1.6165886858496294 7.4781503861181085 0.4519360000000000 0.2
34 1 7.8674244103254418 1.9327386796046082 7.0012794200910164 0.3747375000000000 0.2
35 1 7.4890031923209550 8.8604976394876633 7.9083043562806097 0.4120415000000000 0.2
36 1 7.8667787040556130 8.9871268001531632 4.3617816310865782 0.5750800000000000 0.2
37 1 1.1391840682509122 0.4617278557373492 1.3856125109575548 0.5162500000000000 0.2
38 1 4.8185351323541150 0.4477577344977527 4.9398531590759225 0.5941850000000000 0.2
39 1 3.1852798057430824 4.3987680950444217 6.9215601375288536 0.6515550000000000 0.2
40 1 2.1148568393611793 0.7678159988809342 7.7819382419753200 0.6209500000000000 0.2
41 1 0.5204622983024272 4.4739371369465788 8.1345860077904284 0.4182075000000000 0.2
42 1 8.7333574579400004 5.0731231351079868 9.0379270240681873 0.4843040000000000 0.2
43 1 0.0687453896097655 8.9821482421669288 7.4350247557801721 0.7351350000000000 0.2
44 1 2.6207379631155709 6.5833009730232828 3.5391723108631581 0.3681760000000000 0.2
45 1 9.5947041859516897 5.5724760706089036 1.4607915727199126 0.4605120000000000 0.2
46 1 5.2714747444066532 7.7538065879723561 1.7799141165591410 0.5314000000000000 0.2
47 1 6.6209239905193877 3.5308372107964665 0.1351287333866361 0.3917005000000000 0.2
48 1 9.0605486130759214 3.2733813586490337 5.1474895597644288 0.3983635000000000 0.2
49 1 9.4969174270727645 5.6827301838273270 8.9215519840761175 0.4824545000000000 0.2
50 1 2.9266645519197465 8.9610280263281155 0.5957090305370503 0.4489110000000000 0.2
51 1 1.8292569016526425 1.3718819794496981 4.2945683970311626 0.6179400000000000 0.2
52 1 0.8495667357341635 6.4993662017629648 1.3037232141821939 0.3742770000000000 0.2
53 1 9.1933910546854154 7.3365482623754552 4.6564152287310439 0.6348300000000000 0.2
54 1 3.3833161398949567 6.0533597121149256 9.3372869204956608 0.4236810000000000 0.2
55 1 1.1372458922642110 5.4744461807089424 1.2415611595223761 0.6781700000000001 0.2
56 1 5.0976290219912759 9.4519029512960735 5.6742614712255959 0.3870130000000000 0.2
57 1 3.2323607595756210 4.9645403839919728 8.8092236009909044 0.6346650000000000 0.2
58 1 0.6291817291493017 6.3750768205025219 3.1184449559320107 0.3912565000000000 0.2
59 1 3.7985079946204086 3.3337731713053804 7.6054324785754748 0.7547750000000000 0.2
60 1 6.9011984003934002 5.0473358754192521 5.7732023715523564 0.3948225000000000 0.2
61 1 6.7149792240232467 4.1635242155734762 2.5910213010514158 0.4921890000000000 0.2
62 1 6.0027681311496872 5.5885519105542043 5.4630635809658079 0.4629365000000000 0.2
63 1 6.8399638684102761 0.8990845050351989 8.7464919861084933 0.3616485000000000 0.2
64 1 9.2455474977277810 8.1582696537083557 0.3032689201875429 0.4217555000000000 0.2
65 1 6.9459586024924178 2.9720434284819612 8.0509247586267900 0.5792300000000000 0.2
66 1 3.7431119302961884 4.7965891861159555 3.3388374228257249 0.4498485000000000 0.2
67 1 3.8238722246251156 7.0878456596611281 7.4963261444529756 0.4212635000000000 0.2
68 1 4.5238770395740220 1.3565953821472054 0.9672111534915481 0.4587420000000000 0.2
69 1 4.4345145941739021 8.3606218529044796 3.6963125426782302 0.5822300000000000 0.2
70 1 7.4271696143422981 4.6514634907468739 2.8340373821368829 0.4044480000000000 0.2
71 1 9.4056537607076685 1.5960757893377731 8.1783416010146137 0.3764255000000000 0.2
72 1 8.5218702816888605 2.7830963091012642 8.5864705137787940 0.3927705000000000 0.2
73 1 7.1070310956264962 6.2232155494203827 6.8114360262954907 0.5562500000000000 0.2
74 1 0.0617682087479723 0.7154247696988739 0.8073357736319980 0.7324700000000000 0.2
75 1 2.1622856232837679 1.2799545227799365 3.2999198642117729 0.4321290000000000 0.2
76 1 2.7685075391345046 5.4897476487596251 3.8905890452246426 0.7884350000000000 0.2
77 1 6.2788361348808728 4.2799730611848066 0.6363468772031098 0.4313700000000000 0.2
78 1 8.8787143961293076 5.8812508668163455 0.3444179038445200 0.7426700000000001 0.2
79 1 1.2490233407979772 9.5078431761526705 7.5329320062652956 0.5587299999999999 0.2
80 1 9.2209096378326496 8.7298235983435113 4.3129430304868634 0.7997950000000000 0.2
81 1 2.9442706480330307 8.5041603824460772 2.0780546215048510 0.4579850000000000 0.2
82 1 8.6079128643407525 0.4519580070252709 4.7465222601568113 0.7346549999999999 0.2
83 1 2.4075780345376843 0.4409164308252835 5.3882011147106601 0.4215560000000000 0.2
84 1 0.8452717375346245 6.8463247277866364 7.7441727869556116 0.4607780000000000 0.2
85 1 1.5379345506655808 4.2266379530286891 2.7465124843719724 0.4999980000000000 0.2
86 1 2.9305548690477985 2.6722083925572337 5.1285548800422474 0.3806465000000000 0.2
87 1 2.0591728183793689 2.3502746427271055 7.7696802868821679 0.4997205000000000 0.2
88 1 1.0423276223648403 9.4498214971055496 6.5305946425388255 0.4046105000000000 0.2
89 1 5.3132863182294354 7.3227004037745571 4.9739176624337551 0.5063350000000000 0.2
90 1 8.3957747124842239 8.8668714193811695 0.6586826145154444 0.7369250000000001 0.2
91 1 2.5103745155686412 3.4596206486728875 7.6109618170209616 0.5393500000000000 0.2
92 1 2.6071907272106478 4.5443833446268735 7.9320978777923692 0.5210050000000001 0.2
93 1 3.4980290461108789 4.8127105656090343 4.4868009235476149 0.3715265000000000 0.2
94 1 8.2988873876840916 6.8546312087056576 9.7111812825781989 0.4147785000000000 0.2
95 1 5.1970973227695616 5.3490493424825862 9.3318520113582597 0.5593250000000000 0.2
96 1 1.5610757166463660 0.9717689098441947 2.7466067432865886 0.4392310000000000 0.2
97 1 0.2823952639042049 5.1621616897231881 6.2730154486733429 0.4929155000000000 0.2
98 1 2.7525215762203876 2.2305897420809164 2.9898776065905404 0.5589350000000000 0.2
99 1 0.2537843522258610 2.3367358332249806 8.0765133273587431 0.5029200000000000 0.2
100 1 1.3946071114770144 2.1747793949353218 3.0568822523909223 0.7714299999999999 0.2
101 1 7.6457991919319976 3.2602632319578682 9.1379839927174249 0.7448150000000000 0.2
102 1 8.7300122471792783 2.2604602921459054 7.6248762798639103 0.7168150000000000 0.2
103 1 5.8256142771153208 3.4991143250608645 0.2158877553933718 0.4075345000000000 0.2
104 1 0.7050436178197172 6.0496760827012706 9.0235442320853387 0.4109360000000000 0.2
105 1 6.1566682278507541 8.7522775836357187 4.1517487253847332 0.4319070000000000 0.2
106 1 3.5120374665240250 1.6492923999470430 9.0513171142179445 0.6148200000000000 0.2
107 1 1.6658568582226971 0.1441239332123786 5.8773843343426400 0.5135600000000000 0.2
108 1 9.4314152747638964 0.5552636950348578 3.8152429160760546 0.5124750000000000 0.2
109 1 6.8170114384978131 7.5649884533523339 7.2166652565521439 0.4586710000000000 0.2
110 1 2.5737880601827614 2.1763038071858967 5.7924075171476659 0.5212350000000000 0.2
111 1 9.4031978766973729 9.2532344607451016 1.0489178322274555 0.4070420000000000 0.2
112 1 8.7425812089327213 0.1293183195504153 1.5125241531129567 0.5330650000000000 0.2
113 1 7.0908579565740730 0.6221988472960635 5.8882124939632634 0.4884800000000000 0.2
114 1 8.1896774048869485 1.8765410120887811 2.4695397537252028 0.4865350000000000 0.2
115 1 7.6002461079560275 1.0958498771363854 2.1660954523215881 0.4578045000000000 0.2
116 1 6.1901434299713385 8.2179867870312862 2.3707923169719272 0.3993510000000000 0.2
117 1 5.4051224371223201 6.6156590423466373 4.2772066259477795 0.4889610000000000 0.2
118 1 6.5043164799967137 5.8934847958029950 0.9532089353337573 0.4600195000000000 0.2
119 1 3.7778725721361424 8.8721130655009333 1.2628790008099098 0.6193600000000000 0.2
120 1 4.1106887901116762 5.4193411000640541 9.4311683770545773 0.5329250000000000 0.2
121 1 0.5162112195259282 9.5410776203522385 4.0135647062523461 0.4515735000000000 0.2
122 1 5.6790816079074879 1.9907028197108707 4.4774022335921968 0.6554050000000000 0.2
123 1 1.9809887088750904 4.7338508005419015 9.2061395947476150 0.6981200000000000 0.2
124 1 1.5892403491229443 5.1796677760787393 6.8815413711803837 0.3930615000000000 0.2
125 1 4.2067056738200668 6.3718309084799847 5.0618208261243334 0.3694375000000000 0.2
126 1 6.1355757516226577 3.9520949393076861 7.2363073846045953 0.3683290000000000 0.2
127 1 4.6643948689189996 6.0945702942550035 0.3538325907304721 0.4933850000000000 0.2
128 1 5.2564384453125408 2.5527189350608559 7.9077763865132491 0.4001935000000000 0.2
129 1 6.7234703268552005 6.9437711726531148 0.8126981614424157 0.6196250000000000 0.2
130 1 7.9041497091500839 6.7210252333093718 2.5264125636453447 0.3728560000000000 0.2
131 1 6.4835945851239476 0.6306499440952809 4.9229554910624502 0.6510100000000000 0.2
132 1 1.2750165041250483 2.5203698424201821 0.5994072413164016 0.4206400000000000 0.2
133 1 7.3402807169514652 7.5212970022136485 1.3536352088232584 0.3834890000000000 0.2
134 1 0.8917291044320775 6.0436757833362158 5.2113634169349208 0.5621200000000000 0.2
135 1 1.4976857771108096 1.8177051840404956 1.9517413261085621 0.3754805000000000 0.2
136 1 9.2779726329955867 9.3231847660813330 5.4689172135407507 0.5002350000000000 0.2
137 1 4.9538700670924323 6.5103466880399585 5.0797199926565009 0.3880280000000000 0.2
138 1 4.5001092346673532 4.9319998962033651 0.8821365956035888 0.7032150000000000 0.2
139 1 6.5161522200545896 7.1316301780560023 6.1749730486881207 0.6983700000000000 0.2
140 1 6.6614348243435826 6.8002948227416100 8.3509932333477792 0.4542710000000000 0.2
141 1 8.5105529790361505 0.4400687071570239 0.6004528978543725 0.4566025000000000 0.2
142 1 6.2062856206495169 2.6855004972392784 2.2229435986113852 0.3743885000000000 0.2
143 1 2.3141986366566387 1.1257393953535426 8.8048924199199678 0.4806770000000000 0.2
144 1 6.3445043285754084 2.8293863555921259 4.0814436048441358 0.4859215000000000 0.2
145 1 0.0471376135983558 1.7767882185507204 1.4021821603636884 0.4706720000000000 0.2
146 1 2.9472143411738969 3.7385540019035850 1.2780121860569889 0.5096900000000000 0.2
147 1 6.5524308008747481 8.6862037178317948 7.5253475232576506 0.6143800000000000 0.2
148 1 5.1488208098271828 -0.0127669566328329 2.3820569323013183 0.5011050000000000 0.2
149 1 9.5198812832345254 6.6118108915688891 1.4290258451257452 0.5804450000000000 0.2
150 1 4.7684688904334118 9.0489463873824558 4.7764083662880745 0.3770395000000000 0.2
151 1 3.8580784924284690 2.9934522486317268 9.0940967972496942 0.7732599999999999 0.2
152 1 6.7512681647771045 0.5114020602681082 9.4325504688121988 0.4307570000000000 0.2
153 1 7.7422551032173885 0.1858467057237952 2.3485482675351106 0.3905040000000000 0.2
154 1 0.2341876681065914 9.5734432103799030 1.9894415246122372 0.6826100000000001 0.2
155 1 2.5620315353718781 5.4244312399991843 7.2761058340155715 0.5766050000000000 0.2
156 1 9.4197513706643399 0.7332062226475430 2.7989108131456999 0.5191050000000000 0.2
157 1 2.5682547123080877 2.5144390862363202 1.3053761904562025 0.4106890000000000 0.2
158 1 5.7673627082354066 6.8336407571509445 8.4485961564409493 0.4093745000000000 0.2
159 1 9.4245572281057743 5.2494098744440958 7.1159226078111315 0.4335330000000000 0.2
160 1 6.8024966846267265 8.4545698927535522 6.2963886132710787 0.6605200000000000 0.2
161 1 0.2861835838625265 2.7552401434578622 8.9002199275406610 0.4215420000000000 0.2
162 1 7.5158470178480474 6.8125204596782778 3.9309168107185788 0.6129550000000000 0.2
163 1 7.6231527937054171 4.4177693114519601 1.9842221337850323 0.4975395000000000 0.2
164 1 3.9347672392386754 3.7174267362842777 0.5892865465001137 0.5540900000000000 0.2
165 1 5.4068746816545472 2.5481185725026272 2.0543131332312679 0.4538265000000000 0.2
166 1 4.2898255869028130 5.9639099102946025 6.7126455821089319 0.4059420000000000 0.2
167 1 6.0593338163023933 2.5598979654089438 7.8780523592188070 0.4023925000000000 0.2
168 1 3.3046016802636107 7.5239309486510013 8.1165362366803944 0.4874140000000000 0.2
169 1 8.3928950236729065 3.4500436081302812 2.6268701968084778 0.3875285000000000 0.2
170 1 2.6864271374853654 9.0291454324043254 4.4187751318874637 0.6087600000000000 0.2
171 1 6.4553986275167770 3.9423939683696569 8.0425983357366704 0.4647605000000000 0.2
172 1 3.1994462714153502 5.8798031496017273 2.8720792126469030 0.3842370000000000 0.2
173 1 4.1484075419989308 0.6797085934655183 3.6442619772110758 0.4935495000000000 0.2
174 1 6.9728512574854546 0.3831622346744040 7.8666018818704346 0.6664150000000000 0.2
175 1 3.9333144758770144 8.0232706909439866 8.5436711529791047 0.4035855000000000 0.2
176 1 7.4095953281682156 7.6397069249524501 6.4835929574830846 0.3725095000000000 0.2
177 1 4.1672750290424059 1.0290106341859060 7.1389898051882188 0.4475955000000000 0.2
178 1 5.8940529417616636 0.7211143855616864 0.6510241392328523 0.4688440000000000 0.2
179 1 0.4472061234091055 2.2886723024986675 0.7743860759957109 0.3881465000000000 0.2
180 1 3.2978041055490839 0.5733149620322594 4.0796516408177235 0.4656750000000000 0.2
181 1 0.1644416783052880 7.7311458740144889 6.1126069966912366 0.3877605000000000 0.2
182 1 2.2771489800224454 8.0230244613815156 6.9308529572320374 0.7812600000000000 0.2
183 1 7.7348018895623216 5.2048234390725288 3.2897371697696030 0.3735800000000000 0.2
184 1 3.7370894718783378 6.9894497743699704 4.6669736899268965 0.4885015000000000 0.2
185 1 4.9076765182939353 4.0659442439559461 9.3963265372432421 0.7562449999999999 0.2
186 1 0.1413264778637534 4.1928996244183079 -0.0059749486334584 0.3917555000000000 0.2
187 1 0.1256781624535223 6.8573583814317116 5.6545234603713732 0.5989550000000000 0.2
188 1 1.8333306553644226 4.9253247129966606 2.0421933496114493 0.5107000000000000 0.2
189 1 8.8966738259219458 5.6686059290558752 4.6368840028722822 0.4564810000000000 0.2
190 1 4.7785214461528307 3.3689531627597096 3.8787215662413606 0.3762735000000000 0.2
191 1 8.6447111797395682 4.7424336699968235 1.3099985193162145 0.7685900000000000 0.2
192 1 3.1759963490943695 5.1291907281593323 2.8423500024322985 0.3672850000000000 0.2
193 1 0.7728606910479490 9.1862071213302290 0.8051984092343415 0.6089250000000000 0.2
194 1 8.3775108026317984 8.0130664008594188 5.1065141096479705 0.4995680000000000 0.2
195 1 7.4967671490382273 9.1311691253085829 3.0379942215424003 0.6020400000000000 0.2
196 1 9.1983484957603281 1.6219424575388985 2.3280421687635271 0.5104050000000000 0.2
197 1 8.3560903580683075 2.7758860517639854 1.9606642068212092 0.5590000000000001 0.2
198 1 6.1151700146455399 1.5641202941832457 1.2181348284643232 0.5690250000000000 0.2
199 1 4.2650060726548293 0.4461751103156527 2.6549724442358751 0.5291500000000000 0.2
200 1 7.4923671056270216 0.3319052967097141 1.2867211520564212 0.7091850000000000 0.2
201 1 9.2811099570254783 2.2336658538201615 6.6583618106159834 0.3922940000000000 0.2
202 1 3.4355281892817380 7.6728761858023340 9.1517861736396036 0.4542570000000000 0.2
203 1 8.0942893319445961 6.2396735850611034 3.2623686286768234 0.4367300000000000 0.2
204 1 5.1710194975624555 1.7198296484704276 9.2170369259815832 0.3620035000000000 0.2
205 1 7.6038501114838368 2.2380976173870089 6.2488066508179259 0.4203840000000000 0.2
206 1 6.4349633618787152 5.9630588748544753 4.4370160944319714 0.7108950000000001 0.2
207 1 9.1624779852034255 8.7519986640957796 8.8575137039957870 0.7976950000000000 0.2
208 1 6.7474369809021022 3.8523241144738329 4.5241202068550592 0.6991350000000000 0.2
209 1 2.1442487454230768 8.3070777255290356 1.6713288859754811 0.4522140000000000 0.2
210 1 5.8589545469613995 5.7634369030131420 8.3865018736185331 0.6662150000000000 0.2
211 1 8.5795431560077535 1.1814548609544089 8.7543781699911332 0.6427600000000000 0.2
212 1 6.0521965862903153 6.6688505019986923 7.3949756166540919 0.6864050000000000 0.2
213 1 9.3981370656385899 5.8457597888960890 4.0063328375988041 0.3643480000000000 0.2
214 1 5.0785207324925699 1.0098735314381915 7.0592138482195113 0.3931265000000000 0.2
215 1 2.1324131990641026 2.1019644779807560 0.6051297480358552 0.4988025000000000 0.2
216 1 3.2517845897917552 9.4302729219064698 8.7242833289667665 0.4258295000000000 0.2
217 1 0.8064090025634617 2.6541825356021764 1.7670281493490212 0.7249600000000000 0.2
218 1 2.4276576082021406 6.9519509911561519 8.8669159072763382 0.8004250000000001 0.2
219 1 3.7706692806283528 7.8677517110179975 5.5447613114405438 0.6742950000000000 0.2
220 1 3.6782081398258613 0.0898249849783742 6.7098465860959449 0.6171400000000000 0.2
221 1 3.1874608777474327 7.0805075356130702 7.0092519135112807 0.3789600000000000 0.2
222 1 6.4747051846507171 2.5445939802277824 4.9223105153563802 0.4103385000000000 0.2
223 1 2.7853330177241848 8.9924602155349938 1.4133221314452655 0.3791875000000000 0.2
224 1 2.5483530745954299 0.1389547136898200 3.4753436767832033 0.5900750000000000 0.2
225 1 2.5479761865312951 3.8332794678683522 6.0552872320806488 0.5634000000000000 0.2
226 1 0.3076252547548945 5.9915730858461593 0.7876905690007747 0.3972660000000000 0.2
227 1 1.1190494938768403 1.6586972542945964 5.1262400109885471 0.4406405000000000 0.2
228 1 4.9264288456298564 3.2709327928342598 1.9361425359838607 0.4212955000000000 0.2
229 1 5.1152739088737800 6.4818833513148570 7.9910808211881941 0.4342980000000000 0.2
230 1 5.8317694905580479 0.4178324302412498 9.3962193912462482 0.4468830000000000 0.2
231 1 1.7755235544179804 5.1604065013847222 3.0251744020916163 0.5014150000000001 0.2
232 1 0.9534903550932089 1.8291544596860183 4.0773728771552733 0.3919050000000000 0.2
233 1 8.3524461348762156 4.9684506904851151 4.5555197312177365 0.4279395000000000 0.2
234 1 4.0460362911231771 7.5274499044988614 0.3323778470326853 0.5157200000000000 0.2
235 1 2.5264687377891661 6.5899366877059427 2.4935308327462722 0.6631050000000001 0.2
236 1 4.3326811484776213 9.3588321140120119 2.0116672754613369 0.4266340000000000 0.2
237 1 4.0622097464561318 5.3173769766645895 4.0832804968531740 0.4714780000000000 0.2
238 1 0.9933440580769441 5.6550161258921010 3.0160251957303927 0.4133880000000000 0.2
239 1 1.0242421800618324 8.3020922024685788 8.9026074680529899 0.3964360000000000 0.2
240 1 3.9132320162747130 4.7441502868579892 5.2037927507627790 0.4584380000000000 0.2
241 1 7.2285479040982503 4.2172500995431905 0.2571174474258218 0.5325600000000000 0.2
242 1 7.2764326635289649 3.1858072407069260 0.8302539072177801 0.6176450000000000 0.2
243 1 0.8957318782715086 8.6151899623701649 3.9488712432887936 0.5469750000000000 0.2
244 1 7.4861230571231561 9.2067569355479915 7.0520114099787055 0.5109900000000001 0.2
245 1 0.0759112389460828 2.8710790993820150 7.1611391488340326 0.5107750000000000 0.2
246 1 5.4831227001597274 9.2307419908739732 0.0099514508750247 0.4332370000000000 0.2
247 1 4.0529985536963196 9.2424672399117682 5.5370482875909834 0.6751100000000000 0.2
248 1 2.1623859336264974 0.9107094272737408 0.7137102019898169 0.6194900000000000 0.2
249 1 5.7465005131569198 6.5315887157293675 9.5674094719691318 0.7410700000000000 0.2
250 1 4.6302559796806273 5.8762700671862387 4.5893224677796853 0.4341765000000000 0.2
251 1 6.8464476270381871 0.5035147041084043 2.6529600618086429 0.6040600000000000 0.2
252 1 5.4214709343527359 5.9495427787507973 4.8422643726526999 0.3793940000000000 0.2
253 1 8.7046631225630957 5.9131005859833037 5.9603250714355349 0.3802975000000000 0.2
254 1 4.1034699430041703 9.1202918535958908 7.4494256531826517 0.4100760000000000 0.2
255 1 4.2450819904336585 9.1515905973562006 2.9897461196584181 0.4402720000000000 0.2
256 1 7.2657887572192692 6.3884702138824503 2.9984421628212687 0.4410130000000000 0.2
257 1 7.1695050008071535 8.1224038245073462 0.2301873456652666 0.7601800000000000 0.2
258 1 5.0249165146191306 2.7276939082899960 4.8156036861631462 0.3783790000000000 0.2
259 1 3.4364471063542745 6.8850876946555193 9.5864021983046790 0.4401500000000000 0.2
260 1 2.2071471503793383 3.6825708002357507 9.1816982780972687 0.3768320000000000 0.2
261 1 3.2588065552192518 1.0828319953668135 2.9648795966231516 0.6957000000000000 0.2
262 1 3.9518997701662535 7.1252931934320820 1.2277449920194177 0.4153870000000000 0.2
263 1 1.6691163202883783 7.3522123561588026 7.8613087647938595 0.4527635000000000 0.2
264 1 5.8261333947438940 0.4780707628898705 2.7962301214799647 0.4206925000000000 0.2
265 1 5.7757325709708738 2.9373899600593836 0.7979315522461333 0.3970845000000000 0.2
266 1 3.2531597705206114 0.9611255056367952 7.3195835207062112 0.4751475000000000 0.2
267 1 9.6642397070761277 0.5581776426518681 5.1271557139079311 0.3903970000000000 0.2
268 1 1.6726870861964034 1.5439527178808972 8.3363949387986995 0.4143280000000000 0.2
269 1 1.8843326098534063 2.1080783131139817 5.1197684865513482 0.4273745000000000 0.2
270 1 0.0403848131461594 5.6437865738087023 3.1408515051394561 0.5472300000000000 0.2
271 1 2.5066816388672417 3.1468065936762990 1.8352925717062114 0.4104315000000000 0.2
272 1 3.2741691767020327 0.3857665600778169 5.8403637259943730 0.3758865000000000 0.2
273 1 7.2024674696832500 2.8348184962998042 4.5960231264182640 0.3890110000000000 0.2
274 1 2.2391703899988089 8.8310884348396126 8.4659362088768049 0.4250455000000000 0.2
275 1 1.2062063878107474 5.6168942824809873 0.1031753753612142 0.4657100000000000 0.2
276 1 4.6748804234255248 5.8800960122108448 3.0549789590687646 0.4011220000000000 0.2
277 1 9.1108397465153352 8.2422228955404577 6.5256417208598307 0.5204299999999999 0.2
278 1 6.5998459286547968 9.3465444855219406 5.5962017680898715 0.4771200000000000 0.2
279 1 8.4839991038465179 0.7159826461608040 2.3485021144246372 0.5194950000000000 0.2
280 1 1.9760323321549038 2.8489766699114250 6.6455940752124674 0.7186650000000000 0.2
281 1 0.0566904704629854 8.5876851378458259 2.4200214419282244 0.4075430000000000 0.2
282 1 9.5052945771083284 4.9898121064740106 9.5204513084313245 0.4294830000000000 0.2
283 1 5.5435255612839622 4.7603174751281223 0.4521158470727581 0.3975925000000000 0.2
284 1 8.1092836338724918 7.3581757710341131 7.7460380213508371 0.4683260000000000 0.2
285 1 2.3914097654068991 5.7621387146307930 1.4757526485890888 0.6296650000000000 0.2
286 1 5.6399416299008838 1.2755753214818066 5.5251654831242289 0.5677900000000000 0.2
287 1 3.4731078279603600 5.4583724592868030 1.2641602897347017 0.5117850000000000 0.2
288 1 2.1594061953089931 4.5729604618757129 0.9499089447714564 0.6814950000000000 0.2
289 1 4.1338930974010744 8.5069890297719475 4.8056762768769490 0.3640450000000000 0.2
290 1 1.0503112818243012 3.1179156210899439 5.9259812053075480 0.4832135000000000 0.2
291 1 2.1653354417070743 9.0817824193384311 7.6081992358973727 0.4310715000000000 0.2
292 1 5.3845126933447407 2.9375866720432153 4.1835406388553871 0.3779315000000000 0.2
293 1 6.0939709296716584 7.5980513010601580 0.2910507703053724 0.4235115000000000 0.2
294 1 7.9661089199714024 4.3025379147860159 4.2886629098597622 0.3827835000000000 0.2
295 1 1.7209377591213844 0.6247862482014543 3.4565094464251165 0.3668520000000000 0.2
296 1 1.8833870148615863 0.9584789184475501 1.7456344836509856 0.4482195000000000 0.2
297 1 4.6227369359129460 3.8448797630891050 6.8875259707754397 0.4467520000000000 0.2
298 1 9.0604952052014305 3.9854708498461875 4.4792279070246694 0.4643865000000000 0.2
299 1 0.8784251877383144 4.9759479498484094 2.4090105197033314 0.5043250000000000 0.2
300 1 8.7901026957756176 7.8808257171599099 1.0180350198124302 0.3650950000000000 0.2
301 1 9.2795336680353468 2.6230326847533258 5.8955121204222092 0.4631000000000000 0.2
302 1 0.7977740158286606 4.7648901664454018 3.5174472048439447 0.6255800000000000 0.2
303 1 0.5617920698959709 7.8469143886441772 2.4579895939245011 0.4898265000000000 0.2
304 1 4.1941218269656790 7.2686086722444960 3.7894035533169501 0.5391899999999999 0.2
305 1 1.1395720280229287 8.6270283164089516 6.9132518786467596 0.5052550000000000 0.2
306 1 2.0641922832050321 2.4557880661642830 2.1142580553671659 0.4064860000000000 0.2
307 1 2.8874381889519305 2.5741675173411243 7.3411314663711140 0.4591620000000000 0.2
308 1 4.4326503959617263 1.9589550898380215 0.1209532504349265 0.5725300000000000 0.2
309 1 3.4453797557744021 5.3397849051823494 5.5807070617229160 0.3806120000000000 0.2
310 1 1.9450230030455640 8.7061635984645953 3.5481689958911780 0.5794000000000000 0.2
311 1 9.2486503745204551 0.8459649746287232 1.8588230981132541 0.3863345000000000 0.2
312 1 8.0320381489068780 0.5092197077132877 5.7950592235555280 0.4145930000000000 0.2
313 1 7.8912281228532706 1.2810260302548624 7.7514114998892625 0.5772150000000000 0.2
314 1 3.8140378361253804 3.5371792175780454 6.1263972699145306 0.6779450000000000 0.2
315 1 5.8793763852431207 3.8805060493823467 5.3346372952937289 0.4881620000000000 0.2
316 1 6.2757309467781361 8.0652702710134871 5.0872909260034662 0.7145100000000000 0.2
317 1 2.0785485041191265 8.8478550611703657 0.9293281542928475 0.4682660000000000 0.2
318 1 8.4848201018984994 7.4530213050107532 6.8253609536893292 0.5303150000000000 0.2
319 1 7.1631675571693050 2.1949648251787091 1.8045019089412919 0.7761400000000001 0.2
320 1 2.5485343016610842 0.5156250918489861 6.5046120782323014 0.6062400000000000 0.2
321 1 3.7884039820415252 6.5467061159763116 6.9117598090819818 0.3753820000000000 0.2
322 1 7.5455730287652019 9.3408843968903241 6.0233718957821445 0.5272950000000000 0.2
323 1 8.5945490524006427 1.2016545451630725 6.6841364675260051 0.7030050000000000 0.2
324 1 3.7351349964146601 2.2760252859508654 2.4919951432547838 0.5419200000000000 0.2
325 1 3.5326191822402460 7.9753075565680529 4.3298585815566106 0.5675249999999999 0.2
326 1 1.1056099600451128 6.9925848191712090 5.3900745739165643 0.4247185000000000 0.2
327 1 2.8423549518715010 0.9601277797714646 1.8164678872554250 0.5043700000000000 0.2
328 1 8.2814940440491558 3.8631381761463870 1.9272640187238139 0.3649925000000000 0.2
329 1 5.9982251493059433 0.4863355417054942 1.7469190248862911 0.6354100000000000 0.2
330 1 3.8960964374837315 8.6640324831271194 2.2954678628995144 0.4381000000000000 0.2
331 1 0.2140435482714291 0.4772683745873972 6.1980807360878796 0.6961050000000000 0.2
332 1 3.5151254030741335 1.3597568707156817 6.2409293874545533 0.7026900000000000 0.2
333 1 7.7821436755031748 8.9119598282539592 8.8338924592837031 0.5592650000000000 0.2
334 1 5.9136967315483373 1.6450718928351309 6.4414012095094879 0.4512590000000000 0.2
335 1 1.0157715274927628 8.8376768589487984 2.7659146087701942 0.6422000000000000 0.2
336 1 9.3126240517756376 7.6316448649014337 8.5330212063685629 0.3773650000000000 0.2
337 1 5.1925457102302079 7.5158765822934095 3.9262642977903814 0.4981090000000000 0.2
338 1 5.4592523835475673 2.7503218312747020 7.1088339827338256 0.4054400000000000 0.2
339 1 2.8756022749055603 2.3818428369977367 9.3622080413137159 0.4034610000000000 0.2
340 1 5.8641773737843375 9.5885738195258785 7.8271253640986398 0.4980320000000000 0.2
341 1 9.1615463529881485 9.5449714821981413 0.2414465349777647 0.3660605000000000 0.2
342 1 3.2060930076059546 0.2202129271236256 4.9764061521451595 0.5017350000000000 0.2
343 1 6.6357662588336632 3.4825058771026094 3.3589878467552308 0.5283350000000000 0.2
344 1 2.9559817855795081 4.0486942917803210 0.0874434100363570 0.5928300000000000 0.2
345 1 9.0885234295058357 3.0359597369783566 4.2215009628097979 0.5066750000000000 0.2
346 1 3.4605402710665558 5.4812814953760043 4.8325790417562970 0.3775205000000000 0.2
347 1 0.2732952537485392 3.0955699317772272 5.3691074883422072 0.4711355000000000 0.2