ITEM: TIMESTEP
0
ITEM: NUMBER OF ATOMS
1000
ITEM: BOX BOUNDS pp pp pp
0 9.76409
0 9.76409
0 9.76409
ITEM: ATOMS id type x y z radius Transparency
0 1 0.5892830538897023 3.2487813155686762 8.0495635584688063 0.4358495000000000 0.2
1 1 5.1480724639729356 1.0482264024416126 3.1158513360058304 0.5124900000000000 0.2
2 1 8.0943669300976300 3.0050316900125642 8.1250149154899383 0.4162825000000000 0.2
3 1 1.2636420638762795 5.5760919332900203 6.0798834610785129 0.5000000000000000 0.2
4 1 5.7466860853671236 9.0366195533925424 1.7481986810047714 0.5380900000000000 0.2
5 1 3.7713637745504651 0.2218418367985966 7.9965064469017655 0.5163150000000000 0.2
6 1 8.3743585909324700 3.0999024842776852 0.5247826735240891 0.3666925000000000 0.2
7 1 9.0389570999318885 0.6171615571552452 5.8594004069660306 0.3766435000000000 0.2
8 1 5.2512609911487056 9.6367113016738504 3.7571377565825634 0.7919650000000000 0.2
9 1 0.8623913498752577 1.5357839883159885 6.0627879280171921 0.4401755000000000 0.2
10 1 0.8637464762831829 6.0279925627322548 4.0609243574942058 0.6164200000000000 0.2
11 1 4.9269339318354284 7.0321074010942022 0.7422849546781249 0.4648655000000000 0.2
12 1 9.1392928211963955 8.0505258523339904 7.7704685437457854 0.5510300000000000 0.2
13 1 7.9271164004375745 6.6841578751932014 8.6287548221592463 0.7180050000000000 0.2
14 1 6.7251696537266001 5.9120704223160265 1.9036167165524776 0.4623000000000000 0.2
15 1 8.7047431193880858 1.3092580939198595 3.5078429445750907 0.6967300000000000 0.2
16 1 6.1261693339983418 7.8018243617053162 8.9944578475906471 0.6073950000000000 0.2
17 1 7.3612290931329207 7.9369586431505414 3.8240040176061698 0.3707300000000000 0.2
18 1 4.5419886272253560 8.5625152131363595 0.5378129517722327 0.4403200000000000 0.2
19 1 7.8044048771913852 7.7697689356768187 2.0378224031105270 0.3662995000000000 0.2
20 1 3.5875849225908958 3.3248551772042778 3.4740634983582579 0.7897999999999999 0.2
21 1 7.0950281699443929 1.2400860808099694 6.9660149563284914 0.6512000000000000 0.2
22 1 9.0905894054006904 6.8095177142209957 6.2805769255875816 0.3904030000000000 0.2
23 1 6.8946589726753400 7.6653476202946340 4.3644986119371953 0.3714140000000000 0.2
24 1 4.1650091778119993 6.5314044785303764 9.5531862135459527 0.3616105000000000 0.2
25 1 4.8497395262302510 3.0709465564863709 0.4384625378020049 0.5147250000000000 0.2
26 1 3.1703049126023006 3.7601024505329419 4.9536525366325375 0.7802550000000000 0.2
27 1 4.6583153986637766 8.0272555292093379 6.5314763407964804 0.4616785000000000 0.2
28 1 0.3004285124519980 2.2068163639461496 2.6213046047345330 0.4039595000000000 0.2
29 1 7.7441648783278048 4.1156017584819287 8.0334761198001523 0.7415450000000000 0.2
30 1 5.1995704130838751 7.8514937473866935 0.0276840979803557 0.5892150000000000 0.2
31 1 2.2079543623064608 8.0267365328481777 2.7070466387928103 0.6583500000000000 0.2
32 1 8.5350787645291799 1.5226332693087763 1.3052379551030184 0.7759100000000000 0.2
33 1 1.4965726866496809 1.6626664383962477 7.6326060423638742 0.4519360000000000 0.2
34 1 7.9310499566642578 1.9199240811631211 7.0967333987517858 0.3747375000000000 0.2
35 1 7.5773233023358832 9.0791664166437851 8.0865066912824570 0.4120415000000000 0.2
36 1 7.9792323014106223 9.0828970124391120 4.3586532620671443 0.5750800000000000 0.2
37 1 1.1559202762966814 0.4807161393671102 1.3974446952643325 0.5162500000000000 0.2
38 1 4.8674285449979502 0.4172526370386717 4.9928238345570346 0.5941850000000000 0.2
39 1 3.2170218908904258 4.4709394878229096 7.0592195062185139 0.6515550000000000 0.2
40 1 2.1836166918192657 0.7685061242999414 7.8932874365159762 0.6209500000000000 0.2
41 1 0.5455194345456844 4.4913099316969998 8.2005591763124759 0.4182075000000000 0.2
42 1 8.8509749805555380 5.2122708959126900 9.1044616140392787 0.4843040000000000 0.2
43 1 0.0842239094124679 9.1403456377378429 7.5567177471073936 0.7351350000000000 0.2
44 1 2.7549473390074173 6.6626311186360034 3.5517600190404397 0.3681760000000000 0.2
45 1 9.7878590298794919 5.6955751356950008 1.4367352380833742 0.4605120000000000 0.2
46 1 5.3891431165670296 7.9460165848761122 1.7794962617796302 0.5314000000000000 0.2
47 1 6.7153419132959851 3.6422148717643612 0.0500743883587944 0.3917005000000000 0.2
48 1 9.2285580805587415 3.3083137249425056 5.1782161705382244 0.3983635000000000 0.2
49 1 9.6782914563014462 5.8175419673534066 9.0159276131770234 0.4824545000000000 0.2
50 1 2.9812151439189964 9.1051352687192200 0.5950903235632036 0.4489110000000000 0.2
51 1 1.8564949997544704 1.4407361306695541 4.3733415029552161 0.6179400000000000 0.2
52 1 0.8174718005115900 6.6276595090829593 1.2142960961266880 0.3742770000000000 0.2
53 1 9.2938009830625816 7.4750864545355320 4.7546235014646161 0.6348300000000000 0.2
54 1 3.4940486723329141 6.0466473193295975 9.4662838275804848 0.4236810000000000 0.2
55 1 1.1767274505294834 5.5608490934049026 1.2694235770352253 0.6781700000000001 0.2
56 1 5.1916405756882327 9.5365973585623252 5.7342543115604068 0.3870130000000000 0.2
57 1 3.2880527789735421 5.0550970059704987 8.9503612968146253 0.6346650000000000 0.2
58 1 0.6313604797210008 6.5361291819512184 3.2077561187898818 0.3912565000000000 0.2
59 1 3.8225896106588744 3.3761932737247133 7.7504280723529719 0.7547750000000000 0.2
60 1 6.9646200448900926 5.1122346673259491 5.8800148520735878 0.3948225000000000 0.2
61 1 6.8074484061034237 4.2739563288203293 2.6527335165033725 0.4921890000000000 0.2
62 1 6.0869956437891419 5.6690592131013542 5.5622725285377319 0.4629365000000000 0.2
63 1 6.9513122031173094 0.8760776951197647 8.8705759291543629 0.3616485000000000 0.2
64 1 9.4196041825547727 8.2789545299692051 0.2504981076090637 0.4217555000000000 0.2
65 1 7.0794173460187526 2.9740647848130886 8.1638839481657364 0.5792300000000000 0.2
66 1 3.7785694886404380 4.9177097004539378 3.3590212427360657 0.4498485000000000 0.2
67 1 3.9073616924541987 7.1634956387099118 7.6382805763009234 0.4212635000000000 0.2
68 1 4.5927716716522449 1.3883803341579601 1.0511186798446328 0.4587420000000000 0.2
69 1 4.4958546348243731 8.4738868437393506 3.7299331200786345 0.5822300000000000 0.2
70 1 7.5499661159957814 4.7496532066882766 2.8530301063142427 0.4044480000000000 0.2
71 1 9.5643314711999157 1.6064454641891175 8.3833713733956614 0.3764255000000000 0.2
72 1 8.6898443779633769 2.8531510035859986 8.6851326753047342 0.3927705000000000 0.2
73 1 7.2085481661397282 6.3552260057862071 6.9466112243718188 0.5562500000000000 0.2
74 1 0.0230957247597204 0.7389382404363691 0.8211190950874594 0.7324700000000000 0.2
75 1 2.2882081666314011 1.5192311757047330 3.4042188615215005 0.4321290000000000 0.2
76 1 2.8545766261738490 5.5643148180616411 3.9670824976615333 0.7884350000000000 0.2
77 1 6.4925939019485206 4.3459537889996112 0.6076526972285989 0.4313700000000000 0.2
78 1 9.0054213943593577 6.0026562521730300 0.3863630067895156 0.7426700000000001 0.2
79 1 1.2830867308573182 9.6905811832017292 7.6904060679509536 0.5587299999999999 0.2
80 1 9.3659750197678537 8.8666887204337463 4.4075753719954491 0.7997950000000000 0.2
81 1 3.0101695781996485 8.6479703514254460 2.0651021575080817 0.4579850000000000 0.2
82 1 8.7362605316805215 0.4718216280050701 4.7947137692839652 0.7346549999999999 0.2
83 1 2.4553192978703562 0.4556821432380169 5.4258757125147916 0.4215560000000000 0.2
84 1 0.9076681201983148 7.0025116652549029 7.9224846114975724 0.4607780000000000 0.2
85 1 1.5251555843433207 4.3092082630087365 2.7960836757101419 0.4999980000000000 0.2
86 1 2.8073455634990192 2.6851703144909460 5.2639168064590045 0.3806465000000000 0.2
87 1 2.0593361546224531 2.4059276917821202 7.8927151260169079 0.4997205000000000 0.2
88 1 1.0849539701144102 9.6158011239983257 6.6641743987550512 0.4046105000000000 0.2
89 1 5.4274394436936282 7.5059100021850229 5.0318301036560991 0.5063350000000000 0.2
90 1 8.5634552450100987 8.9898559978735708 0.6129351144925044 0.7369250000000001 0.2
91 1 2.5228882804008772 3.4718402435617515 7.7540704825574798 0.5393500000000000 0.2
92 1 2.6054471606667602 4.6460117278200572 8.0625296569095788 0.5210050000000001 0.2
93 1 3.5298078738766980 4.8205686514523238 4.5804638647526223 0.3715265000000000 0.2
94 1 8.4475550935402666 6.9567773331802192 9.7946044221711173 0.4147785000000000 0.2
95 1 5.3284207213180386 5.4090515795725178 9.4675483506026694 0.5593250000000000 0.2
96 1 1.5692291344961713 1.0891164823624324 2.8849125187091844 0.4392310000000000 0.2
97 1 0.3084826106071335 5.2829116701874863 6.3601680636215905 0.4929155000000000 0.2
98 1 2.8263380916178020 2.2973197242151575 3.0405112571267838 0.5589350000000000 0.2
99 1 0.2542482286725152 2.3481888133324014 8.1961372003352508 0.5029200000000000 0.2
100 1 1.4196652659167694 2.2799973863282883 3.0600761783553891 0.7714299999999999 0.2
101 1 7.7880799453060900 3.2975683597022449 9.2784371362746967 0.7448150000000000 0.2
102 1 8.8850070460457449 2.2682438131366358 7.7338422542705434 0.7168150000000000 0.2
103 1 5.8434230238627167 3.5081238536217163 0.0924438300026859 0.4075345000000000 0.2
104 1 0.7795833873898337 6.1352933428576142 9.1895966529657027 0.4109360000000000 0.2
105 1 6.2793321917035660 9.0112229394930914 4.0957827520735455 0.4319070000000000 0.2
106 1 3.6381355850316979 1.6369643418295063 9.1727317867633449 0.6148200000000000 0.2
107 1 1.6697232454099720 0.1597888678563143 6.0089510546056033 0.5135600000000000 0.2
108 1 9.6298853090830150 0.5491130806951839 3.8630112639671106 0.5124750000000000 0.2
109 1 6.9392603470414755 7.7205029937816301 7.3153349553666454 0.4586710000000000 0.2
110 1 2.6347804987566077 2.1417577864042947 5.9983776149206358 0.5212350000000000 0.2
111 1 9.5568624082119928 9.3958863977357421 1.0517257368898927 0.4070420000000000 0.2
112 1 8.8300090918845289 0.1421423600936594 1.5551646020260985 0.5330650000000000 0.2
113 1 7.2659491458449432 0.6155327080374625 6.0061304623192129 0.4884800000000000 0.2
114 1 8.3025384829998305 1.8683712434367692 2.5045708338723025 0.4865350000000000 0.2
115 1 7.6583210302664133 1.1595289505910218 2.1970983939778339 0.4578045000000000 0.2
116 1 6.2211317158335850 8.4583895136125822 2.3469207561796979 0.3993510000000000 0.2
117 1 5.5339574886239049 6.7262671923162767 4.3611811014896240 0.4889610000000000 0.2
118 1 6.6196300323460537 5.9783960546595694 0.8625842300829485 0.4600195000000000 0.2
119 1 3.8024438187640310 8.9907194602229801 1.2720254440688186 0.6193600000000000 0.2
120 1 4.2337684882203863 5.4277373158803854 9.5308275942214475 0.5329250000000000 0.2
121 1 0.5330649646473410 9.6331913731989420 4.0352092706360256 0.4515735000000000 0.2
122 1 5.7506036887829577 2.0788885675503956 4.5924934467229903 0.6554050000000000 0.2
123 1 2.0191285723723285 4.7993159394327805 9.3322079426932731 0.6981200000000000 0.2
124 1 1.7278681980878641 5.2977401459408693 6.9950054915115789 0.3930615000000000 0.2
125 1 4.3537915577444712 6.5296844797160229 5.1192202383683298 0.3694375000000000 0.2
126 1 6.2600117205864416 4.0617784506178412 7.3793180619014258 0.3683290000000000 0.2
127 1 4.7708717292906684 6.1535273980680065 0.2665426428209492 0.4933850000000000 0.2
128 1 5.3567307918969558 2.5752939784467239 8.1030467141166405 0.4001935000000000 0.2
129 1 6.8700078319597262 7.0612868533896904 0.7931260633382017 0.6196250000000000 0.2
130 1 8.0294847124732573 6.8320810961213025 2.4542180463320316 0.3728560000000000 0.2
131 1 6.5737971472261654 0.7187281598633208 5.1032266046158998 0.6510100000000000 0.2
132 1 1.3033634344001368 2.5986084149947777 0.7063601216889827 0.4206400000000000 0.2
133 1 7.4406845088464424 7.6923655419955255 1.3247194244247988 0.3834890000000000 0.2
134 1 0.8619257588552771 6.1242740342566808 5.2580009973141832 0.5621200000000000 0.2
135 1 1.4945757987127934 1.8911676208650561 1.9609039286917420 0.3754805000000000 0.2
136 1 9.4402907344936420 9.5304188250315125 5.5425203651740196 0.5002350000000000 0.2
137 1 5.1024487337116282 6.6430264167676389 5.1423339232342258 0.3880280000000000 0.2
138 1 4.5905853378922545 5.0378431055624207 0.8918552364757045 0.7032150000000000 0.2
139 1 6.6494749277241381 7.2614285367020424 6.2677447130652606 0.6983700000000000 0.2
140 1 6.7625686542758521 6.9655210790187896 8.4500045001724331 0.4542710000000000 0.2
141 1 8.6272302834558694 0.4245076565556387 0.6210090515889929 0.4566025000000000 0.2
142 1 6.2825023473644794 2.7146024679604195 2.2712408741077739 0.3743885000000000 0.2
143 1 2.3408556263594043 1.1266742077265850 8.9600485205379439 0.4806770000000000 0.2
144 1 6.4583346155574706 2.8767586536743810 4.1534771699843986 0.4859215000000000 0.2
145 1 0.0628150309141711 1.8456134673684708 1.3734674041615866 0.4706720000000000 0.2
146 1 3.0135585099495472 3.8552460809475031 1.2553996230006708 0.5096900000000000 0.2
147 1 6.6674912077459956 8.8559459142285597 7.6493549492057289 0.6143800000000000 0.2
148 1 5.2016584159392458 -0.0119115852011579 2.4248230356792755 0.5011050000000000 0.2
149 1 9.6648529954498965 6.7541722210584423 1.4513500332127696 0.5804450000000000 0.2
150 1 4.8161380472678994 9.1614166729582998 4.7793752508067868 0.3770395000000000 0.2
151 1 3.9032773001798873 3.0023883623188712 9.2435641953112970 0.7732599999999999 0.2
152 1 6.8392977700920836 0.4743919599542277 9.6397748033299333 0.4307570000000000 0.2
153 1 7.8984469667841708 0.1817736208627030 2.3699872278746161 0.3905040000000000 0.2
154 1 0.2480483146575728 9.7257984760646714 1.9896421653034353 0.6826100000000001 0.2
155 1 2.6164341029682281 5.5112389982785501 7.3289759485462396 0.5766050000000000 0.2
156 1 9.5094018601214376 0.6588989775484906 2.8436393281722143 0.5191050000000000 0.2
157 1 2.6456335738438632 2.5821187986678096 1.3389976731906787 0.4106890000000000 0.2
158 1 5.8988328014583971 6.9123639261609915 8.5417317404095350 0.4093745000000000 0.2
159 1 9.6341689852800751 5.4463629746690350 7.2590606952938685 0.4335330000000000 0.2
160 1 6.9607363073124118 8.5800409614265067 6.4276913773758722 0.6605200000000000 0.2
161 1 0.3567668885893457 2.7898119652890112 9.0818571416522946 0.4215420000000000 0.2
162 1 7.6207565064086822 6.9356948541762140 4.0118287827660000 0.6129550000000000 0.2
163 1 7.7141749614169157 4.5210617836904747 1.9526315811581307 0.4975395000000000 0.2
164 1 3.9759757778930420 3.7288162855078841 0.6257029286259748 0.5540900000000000 0.2
165 1 5.4671195166677489 2.6448549055247859 2.1229327503590008 0.4538265000000000 0.2
166 1 4.3149672987870638 6.0432888965652545 6.7919447651187559 0.4059420000000000 0.2
167 1 6.1577930669866268 2.5493423201210388 7.9608261389524317 0.4023925000000000 0.2
168 1 3.4070002490315465 7.6608751589023916 8.2561925766545912 0.4874140000000000 0.2
169 1 8.5587181170364062 3.4935715858121550 2.6573629887217165 0.3875285000000000 0.2
170 1 2.7316956994376302 9.1380576337678985 4.4801181049831609 0.6087600000000000 0.2
171 1 6.4111517098458357 4.1616133916656421 8.1964773573876073 0.4647605000000000 0.2
172 1 3.1770157754850046 6.1941682352772105 3.0307597481192907 0.3842370000000000 0.2
173 1 4.2454195517949760 0.6777022621240164 3.6937890718018438 0.4935495000000000 0.2
174 1 7.0963576597743838 0.3624278936968338 7.9746017676453720 0.6664150000000000 0.2
175 1 4.0294267217765238 8.1658638433782311 8.6750808384259592 0.4035855000000000 0.2
176 1 7.5698875605089420 7.7468886543679192 6.5392537391021159 0.3725095000000000 0.2
177 1 4.2214583852100640 1.0144949134673595 7.2423895252352990 0.4475955000000000 0.2
178 1 5.9922417550587994 0.7247035593594566 0.7175282772837710 0.4688440000000000 0.2
179 1 0.4451884154196205 2.3750924580502901 0.7712095999054049 0.3881465000000000 0.2
180 1 3.3431992681390206 0.5251208441959696 4.1008219511701958 0.4656750000000000 0.2
181 1 0.1512236726819768 7.9100078221505585 6.2129290537145803 0.3877605000000000 0.2
182 1 2.3361939600587158 8.1880403975883898 7.0359083459595579 0.7812600000000000 0.2
183 1 7.8622792600233939 5.3179444860223253 3.3210385200006711 0.3735800000000000 0.2
184 1 3.8499672578535469 7.1251643336875583 4.7260359514146764 0.4885015000000000 0.2
185 1 4.8883991482486220 4.1442850262085553 9.5148742846989691 0.7562449999999999 0.2
186 1 0.1628474601478357 4.2641285960023403 0.0268811919487113 0.3917555000000000 0.2
187 1 0.1568711393955722 6.9625797873347341 5.6857205733521106 0.5989550000000000 0.2
188 1 1.9117629345935108 4.9729898605033505 2.0813066668748341 0.5107000000000000 0.2
189 1 9.0214295404464160 5.7633346951860895 4.7112103837809025 0.4564810000000000 0.2
190 1 4.8364880134136010 3.4340398475366403 3.9512645939431144 0.3762735000000000 0.2
191 1 8.7607177633846174 4.8261147816999141 1.3033374575519534 0.7685900000000000 0.2
192 1 3.2456140834072822 5.3249397014766293 2.8149272824437843 0.3672850000000000 0.2
193 1 0.7746889555384425 9.3235235552663696 0.7662432525585358 0.6089250000000000 0.2
194 1 8.5161015010452097 8.1967238571494097 5.1574004062284624 0.4995680000000000 0.2
195 1 7.5591173009983779 9.3522904518547421 3.0989235911423334 0.6020400000000000 0.2
196 1 9.2659753507055580 1.5737895731574807 2.4330076716474456 0.5104050000000000 0.2
197 1 8.5287453703695597 2.7830042932020613 2.0075411983553200 0.5590000000000001 0.2
198 1 6.2497976691177453 1.6329047038021061 1.2417019483130447 0.5690250000000000 0.2
199 1 4.3126829200851153 0.4741154405572389 2.6784946529648703 0.5291500000000000 0.2
200 1 7.6243808884988349 0.3439660886663483 1.2788081747307396 0.7091850000000000 0.2
201 1 9.4535711946409169 2.2967114838001681 6.7672855073724749 0.3922940000000000 0.2
202 1 3.4893910510046759 7.7674538516685443 9.2506514317452631 0.4542570000000000 0.2
203 1 8.2122495915343485 6.2767980928225171 3.2440614989031267 0.4367300000000000 0.2
204 1 5.2753017982781367 1.7475480086764488 9.3769997439712292 0.3620035000000000 0.2
205 1 7.6590727412495960 2.2256122971202994 6.3899651982455490 0.4203840000000000 0.2
206 1 6.5682955431014038 6.0574397068598680 4.4806830105818571 0.7108950000000001 0.2
207 1 9.2953344328063032 8.9133882850859578 8.9743572837313224 0.7976950000000000 0.2
208 1 6.8208784332128065 3.9247713669739412 4.6082819851036589 0.6991350000000000 0.2
209 1 2.1372971891317087 8.6380681631455989 1.7671965549135256 0.4522140000000000 0.2
210 1 5.9196829754905513 5.8329840823437946 8.4732805126647808 0.6662150000000000 0.2
211 1 8.7292285587009015 1.2373084447167353 8.8399787715362201 0.6427600000000000 0.2
212 1 6.1448672362884906 6.8012622899497224 7.4790726577363191 0.6864050000000000 0.2
213 1 9.6003924113765695 5.9296233956173188 4.0381324212702214 0.3643480000000000 0.2
214 1 5.1526677477419280 1.0396264537053046 7.1561802928198039 0.3931265000000000 0.2
215 1 2.1424191520909037 2.1127844605626711 0.6451366916319594 0.4988025000000000 0.2
216 1 3.3808689560105889 9.5494409333620656 8.8683200040709824 0.4258295000000000 0.2
217 1 0.8288557195526172 2.7473429595963186 1.7651017809603669 0.7249600000000000 0.2
218 1 2.4424770084306764 7.0832438956753521 8.9123395820322369 0.8004250000000001 0.2
219 1 3.8219560682757105 8.0167726086038069 5.6084987823470911 0.6742950000000000 0.2
220 1 3.7645979167562560 0.0839501866841673 6.8448199652485524 0.6171400000000000 0.2
221 1 3.2465176270360847 7.1981725904646847 7.1266668127279837 0.3789600000000000 0.2
222 1 6.5628114858959536 2.6290280796464396 5.0175558067186623 0.4103385000000000 0.2
223 1 2.7929145135306146 9.2634840989079645 1.4321591335007313 0.3791875000000000 0.2
224 1 2.5658392736577471 0.1012677064933978 3.4964963823708581 0.5900750000000000 0.2
225 1 2.6174542597098669 3.8699651628964338 6.1857749947593055 0.5634000000000000 0.2
226 1 0.3115453212771768 6.1608719778502783 0.7692893700806936 0.3972660000000000 0.2
227 1 1.1547096652154640 1.6374334250038152 5.1746125166116936 0.4406405000000000 0.2
228 1 4.9675735694693079 3.3536651535795583 2.0011099572741693 0.4212955000000000 0.2
229 1 5.1673742683570199 6.6665269729430552 8.0912997496925954 0.4342980000000000 0.2
230 1 5.9523673489504709 0.4357466645657360 9.5802519134673698 0.4468830000000000 0.2
231 1 1.8926736401791182 5.2626729361477045 3.0869179972701466 0.5014150000000001 0.2
232 1 0.9763925588060561 1.8997049798827539 4.1092580345481435 0.3919050000000000 0.2
233 1 8.5424146308358573 4.9817470401913706 4.6248757713557271 0.4279395000000000 0.2
234 1 4.1428116703893352 7.5459585263355002 0.2929377453479793 0.5157200000000000 0.2
235 1 2.6027065065516299 6.7976214382213138 2.3902620442306164 0.6631050000000001 0.2
236 1 4.3270225214409601 9.5547404318389635 1.9995891048213710 0.4266340000000000 0.2
237 1 4.2918988643164351 5.3853108553196751 4.2764394158909562 0.4714780000000000 0.2
238 1 1.0881748449400432 5.7706903651619461 3.0712402800201155 0.4133880000000000 0.2
239 1 1.1305689964283401 8.4074354298825664 9.0452783617363171 0.3964360000000000 0.2
240 1 3.9567106761750304 4.7984921110434637 5.2959070517941722 0.4584380000000000 0.2
241 1 7.3902015337767093 4.2997931891207468 0.2195795764591418 0.5325600000000000 0.2
242 1 7.3731003458757645 3.2867579136443892 0.8134099736043742 0.6176450000000000 0.2
243 1 0.9010619703330499 8.7001821259551715 4.0547829267894429 0.5469750000000000 0.2
244 1 7.6098890874862626 9.3485397859116102 7.1962714115813782 0.5109900000000001 0.2
245 1 0.0454249853614356 2.9879270974773862 7.3103098447674366 0.5107750000000000 0.2
246 1 5.5397707088412416 9.3308087831721505 0.0578610103001405 0.4332370000000000 0.2
247 1 4.1164429657885302 9.3807208996439595 5.6350366683021997 0.6751100000000000 0.2
248 1 2.1691971159028496 0.9088098437090323 0.8246591846498886 0.6194900000000000 0.2
249 1 5.8910041408265963 6.6246713830415684 9.6944372629523929 0.7410700000000000 0.2
250 1 4.8199334583658455 6.0324532436489626 4.6607518706963660 0.4341765000000000 0.2
251 1 6.9253877451069670 0.5683021854831540 2.7346822357799243 0.6040600000000000 0.2
252 1 5.5766069986242215 6.0223382490045587 4.9879947215244105 0.3793940000000000 0.2
253 1 8.7485255867311356 6.0166476248354508 6.0387259707761354 0.3802975000000000 0.2
254 1 4.2367777177689394 9.2974450739821926 7.5779733973237686 0.4100760000000000 0.2
255 1 4.2405361718771148 9.3038538704138301 3.0061774808464232 0.4402720000000000 0.2
256 1 7.3814417413588300 6.4800820983154779 3.0430849533976572 0.4410130000000000 0.2
257 1 7.3000499621157111 8.2643470745719245 0.2111846816368624 0.7601800000000000 0.2
258 1 5.0167406323068660 2.8206366801265976 4.9633723840652877 0.3783790000000000 0.2
259 1 3.4425952791291810 6.9764333627436326 9.6846806012078801 0.4401500000000000 0.2
260 1 2.2279919176704506 3.7190807683204019 9.3734288558371421 0.3768320000000000 0.2
261 1 3.2983066291260088 1.1324704777027734 3.0712016324689588 0.6957000000000000 0.2
262 1 4.0152605197616165 7.2252729469140817 1.3396934286606792 0.4153870000000000 0.2
263 1 1.7267594792872849 7.4944780706494321 7.9443756677053292 0.4527635000000000 0.2
264 1 5.9126834035334763 0.4224511585319098 2.8994490362919652 0.4206925000000000 0.2
265 1 5.8437843910028953 2.9778957717655965 0.7626151141419721 0.3970845000000000 0.2
266 1 3.2835169955759653 0.9309770387325361 7.4957587132445838 0.4751475000000000 0.2
267 1 9.8523840733842398 0.6054497387585415 5.2098017098656468 0.3903970000000000 0.2
268 1 1.7071299006763110 1.5380255434890509 8.4719887835381353 0.4143280000000000 0.2
269 1 2.0911818342483888 2.0916074890523175 5.1977153607104869 0.4273745000000000 0.2
270 1 0.0873629693195138 5.7393642517117947 3.1787345066723280 0.5472300000000000 0.2
271 1 2.6161036573080994 3.2426119507845730 1.8696172319163424 0.4104315000000000 0.2
272 1 3.3372958090912888 0.4217781249344221 5.9134995352194171 0.3758865000000000 0.2
273 1 7.3290913410115097 2.8199628081285706 4.7281597975471144 0.3890110000000000 0.2
274 1 2.4918992035732916 8.9627711764173377 8.7587141279028593 0.4250455000000000 0.2
275 1 1.3089746047383350 5.6142162022648749 0.1271087416145504 0.4657100000000000 0.2
276 1 4.7528035307394507 5.9972208488850134 3.0772101907314076 0.4011220000000000 0.2
277 1 9.2510389591726980 8.3748942609421171 6.6846754789881935 0.5204299999999999 0.2
278 1 6.7657796473963465 9.4310876648563227 5.6379799517117517 0.4771200000000000 0.2
279 1 8.5772903527205742 0.7982047879079729 2.3790327548782040 0.5194950000000000 0.2
280 1 1.9831794737272905 2.8895973255713745 6.7581275321191505 0.7186650000000000 0.2
281 1 0.0301162044274261 8.7352013807808895 2.4794731887171508 0.4075430000000000 0.2
282 1 9.6198964069618427 5.1183786980452375 9.6258102388116047 0.4294830000000000 0.2
283 1 5.6336367702363477 4.7813384411768700 0.4523200775391155 0.3975925000000000 0.2
284 1 8.2227663790235059 7.5050429644354804 7.8188790480175117 0.4683260000000000 0.2
285 1 2.4455642139756217 5.8432816549643158 1.5279098874818706 0.6296650000000000 0.2
286 1 5.7230368790972692 1.3740769796733092 5.6806158824378645 0.5677900000000000 0.2
287 1 3.5592512461043011 5.6022002411146490 1.2732926285738162 0.5117850000000000 0.2
288 1 2.1878811456642078 4.6796062674718852 0.9467342314486360 0.6814950000000000 0.2
289 1 4.2635206913191865 8.6336209707945883 4.8935875308296284 0.3640450000000000 0.2
290 1 1.0404023802198219 3.1911688234495386 6.0497008230159892 0.4832135000000000 0.2
291 1 2.2303031106793485 9.2528074480459441 7.7393712375461350 0.4310715000000000 0.2
292 1 5.4012176739280697 3.0346156158185948 4.3023699359379979 0.3779315000000000 0.2
293 1 6.1949483254082489 7.7049622439318117 0.2671692713667922 0.4235115000000000 0.2
294 1 8.1128113040342047 4.3566531586124730 4.3194221568109032 0.3827835000000000 0.2
295 1 1.8916419935057012 0.8492321959384201 3.5839360782409351 0.3668520000000000 0.2
296 1 1.8183331970125729 1.0250042841536444 1.8526783093611976 0.4482195000000000 0.2
297 1 4.6966147238390246 3.8917902521891463 6.9784016798743780 0.4467520000000000 0.2
298 1 9.0883544726638092 4.0279331100827891 4.4919344199123330 0.4643865000000000 0.2
299 1 0.9006225157267883 5.0935080095951673 2.4036152161463611 0.5043250000000000 0.2
300 1 8.9734929726334229 8.0318591567028363 1.1265548401825289 0.3650950000000000 0.2
301 1 9.4363320945059996 2.6022766114787483 5.9011659132121679 0.4631000000000000 0.2
302 1 0.8000059939708372 4.8366722354356124 3.5104570609958601 0.6255800000000000 0.2
303 1 0.5918300929411883 8.0186672854018273 2.4887710963359746 0.4898265000000000 0.2
304 1 4.2495974174890794 7.3514596093590310 3.7878178543834147 0.5391899999999999 0.2
305 1 1.1800667214525618 8.7681591526130802 7.0277896706315186 0.5052550000000000 0.2
306 1 2.1434040383032085 2.5676476594752060 2.1488141020204954 0.4064860000000000 0.2
307 1 2.9194074445521023 2.6031276424963017 7.4205211763097836 0.4591620000000000 0.2
308 1 4.5363109342908379 1.9906486679066540 0.1404737262686485 0.5725300000000000 0.2
309 1 3.4359652449634068 5.3475483846926082 5.6649396999050108 0.3806120000000000 0.2
310 1 1.9537072639722723 8.8175412088855616 3.6285222825453753 0.5794000000000000 0.2
311 1 9.3721157142803069 0.8382044786566333 1.8855322163741906 0.3863345000000000 0.2
312 1 8.2592197876406832 0.4423160359441445 5.8819860220432387 0.4145930000000000 0.2
313 1 8.0063681367947250 1.3070600508241066 7.8302797386606802 0.5772150000000000 0.2
314 1 3.8283173126402343 3.5600220197364698 6.2424610295323930 0.6779450000000000 0.2
315 1 5.9575697670229051 3.9214198589702707 5.4270103229694691 0.4881620000000000 0.2
316 1 6.4300004982971588 8.2061705246455396 5.2038386267845151 0.7145100000000000 0.2
317 1 2.1140940434283007 8.9426486703821109 0.8809401106702209 0.4682660000000000 0.2
318 1 8.6124818061874304 7.5513616651196944 6.8745898691398830 0.5303150000000000 0.2
319 1 7.2711996541858523 2.2835277925151396 1.8356034347604022 0.7761400000000001 0.2
320 1 2.5936771778021610 0.4933905976586634 6.5815478841581347 0.6062400000000000 0.2
321 1 3.7929863601375966 6.6634827984662524 7.0229592994343468 0.3753820000000000 0.2
322 1 7.7036748643383097 9.4651088693512246 6.1438291160084821 0.5272950000000000 0.2
323 1 8.7424767368605636 1.1808663158624537 6.7635796334549907 0.7030050000000000 0.2
324 1 3.8690939260636439 2.3291119970086913 2.5365067720168035 0.5419200000000000 0.2
325 1 3.6099072838795956 8.1149738389672930 4.3872595656331672 0.5675249999999999 0.2
326 1 1.1879183065043404 7.0716071606356321 5.4979191602062700 0.4247185000000000 0.2
327 1 2.8536676950533790 0.9859173390650168 1.8203234529263550 0.5043700000000000 0.2
328 1 8.4025402458401395 3.9439183347158973 1.9741801655707576 0.3649925000000000 0.2
329 1 6.1043093658304830 0.4496964700218182 1.7824305612967031 0.6354100000000000 0.2
330 1 3.9005923005456125 8.8443216101239823 2.3233415973640805 0.4381000000000000 0.2
331 1 0.2506106986518534 0.4990186358173550 6.2977311377989365 0.6961050000000000 0.2
332 1 3.5899858349283327 1.3925978401465890 6.3580688015458584 0.7026900000000000 0.2
333 1 7.9104472133511461 9.0234166264031828 9.0021455002909061 0.5592650000000000 0.2
334 1 6.0876237595925158 1.6259204623091177 6.6331343774518992 0.4512590000000000 0.2
335 1 1.0009160582825218 9.0600887039868265 2.8689288032950446 0.6422000000000000 0.2
336 1 9.4800134353051444 7.7507346863991158 8.6809529317228336 0.3773650000000000 0.2
337 1 5.2952816267922005 7.6151847672647577 3.9932081002927031 0.4981090000000000 0.2
338 1 5.5898095301169644 2.7835839624966940 7.2651542142337879 0.4054400000000000 0.2
339 1 2.9736146863783279 2.3111083778639796 9.5647963340426703 0.4034610000000000 0.2
340 1 6.0059411233964779 9.7226599028490188 7.8912948616814962 0.4980320000000000 0.2
341 1 9.3003829837234360 9.6875974241012859 0.1687138708486801 0.3660605000000000 0.2
342 1 3.2613891347506958 0.1812148041620506 5.0333163911537353 0.5017350000000000 0.2
343 1 6.7898373047887848 3.5106528970939728 3.4053155672484303 0.5283350000000000 0.2
344 1 3.0012755771763593 4.1465705505280033 0.1217691318716855 0.5928300000000000 0.2
345 1 9.2081561095826761 3.0884269035326399 4.2397034907333744 0.5066750000000000 0.2
346 1 3.5656929102790942 5.4927726721815455 4.9183236658613563 0.3775205000000000 0.2
347 1 0.2808000197054861 3.1742369896819680 5.4627227181755105 0.4711355000000000 0.2